    #         X           Y           Z       CHARGE      MIN DIST   ATOMIC VOL
 --------------------------------------------------------------------------------
    1    1.588760    4.801719    8.945663   15.169765     0.978191    13.043556
    2    4.766269    4.801719    8.945663   15.169765     0.978191    13.043556
    3    7.943779    4.801719    8.945663   15.169765     0.978191    13.043556
    4    0.000000    1.600573    8.854457   15.041410     0.848756    11.946931
    5    3.177510    1.600573    8.854457   15.041410     0.848756    11.946931
    6    6.355029    1.600573    8.854457   15.041410     0.848756    11.946931
    7    1.588760    1.600573   12.153237   15.222818     0.978180    12.422517
    8    4.766269    1.600573   12.153237   15.222818     0.978180    12.422517
    9    7.943779    1.600573   12.153237   15.222818     0.978180    12.422517
   10    0.000000    4.801719   12.151255   15.218780     0.960967    12.244779
   11    3.177510    4.801719   12.151255   15.218780     0.960967    12.244779
   12    6.355029    4.801719   12.151255   15.218780     0.960967    12.244779
   13    1.588760    4.801719   15.365510   15.237423     0.978286    12.446817
   14    4.766269    4.801719   15.365510   15.237423     0.978286    12.446817
   15    7.943779    4.801719   15.365510   15.237423     0.978286    12.446817
   16    0.000000    1.600573   15.365510   15.210479     0.946403    12.249987
   17    3.177510    1.600573   15.365510   15.210479     0.946403    12.249987
   18    6.355029    1.600573   15.365510   15.210479     0.946403    12.249987
   19    1.588760    1.600573   18.566629   15.215602     0.978180    12.307092
   20    4.766269    1.600573   18.566629   15.215602     0.978180    12.307092
   21    7.943779    1.600573   18.566629   15.215602     0.978180    12.307092
   22    0.000000    4.801719   18.566629   15.210242     0.962934    12.198783
   23    3.177510    4.801719   18.566629   15.210242     0.962934    12.198783
   24    6.355029    4.801719   18.566629   15.210242     0.962934    12.198783
   25    1.588760    4.801719   21.778902   15.240721     0.978285    12.501145
   26    4.766269    4.801719   21.778902   15.240721     0.978285    12.501145
   27    7.943779    4.801719   21.778902   15.240721     0.978285    12.501145
   28    0.000000    1.600573   21.780883   15.234280     0.953536    12.332086
   29    3.177510    1.600573   21.780883   15.234280     0.953536    12.332086
   30    6.355029    1.600573   21.780883   15.234280     0.953536    12.332086
   31    1.588760    1.600573   24.986475   15.148885     0.976151    12.888209
   32    4.766269    1.600573   24.986475   15.148885     0.976153    12.888209
   33    7.943779    1.600573   24.986475   15.148885     0.976151    12.888209
   34    0.000000    4.801719   25.077682   15.016364     0.929786    11.826298
   35    3.177510    4.801719   25.077682   15.016364     0.929786    11.826298
   36    6.355029    4.801719   25.077682   15.016364     0.929786    11.826298
   37    0.000000    4.801719    7.780925    6.692090     0.859565    50.580315
   38    3.177510    4.801719    7.780925    6.708912     0.859562    84.785022
   39    6.355029    4.801719    7.780925    6.700501     0.859562    67.682669
   40    1.588760    0.378446    8.985011    6.921639     0.892576    10.841714
   41    4.766269    0.378446    8.985011    6.920052     0.892579    10.817587
   42    7.943779    0.378446    8.985011    6.921522     0.892576    10.840325
   43    0.000000    4.801719   10.186888    6.851766     0.845121     9.887504
   44    3.177510    4.801719   10.186888    6.864567     0.845120    10.070448
   45    6.355029    4.801719   10.186888    6.858166     0.845120     9.978976
   46    1.588760    2.822700    8.985011    6.853016     0.892576    10.357449
   47    4.766269    2.822700    8.985011    6.851546     0.892579    10.334711
   48    7.943779    2.822700    8.985011    6.853133     0.892576    10.358838
   49    0.000000    1.600573   10.917390    6.870566     0.887028    10.170252
   50    3.177510    1.600573   10.917390    6.881484     0.887028    10.335839
   51    6.355029    1.600573   10.917390    6.876025     0.887028    10.253046
   52    1.588760    3.572223   12.157596    6.951110     0.869456    10.532236
   53    4.766269    3.572223   12.157596    6.947505     0.869456    10.478428
   54    7.943779    3.572223   12.157596    6.952174     0.869456    10.550634
   55    0.000000    1.600573   13.386026    6.883878     0.874168    10.092752
   56    3.177510    1.600573   13.386026    6.899284     0.874168    10.321867
   57    6.355029    1.600573   13.386026    6.891581     0.874168    10.207310
   58    1.588760    6.031215   12.157596    6.842684     0.869456     9.834044
   59    4.766269    6.031215   12.157596    6.839926     0.869456     9.792040
   60    7.943779    6.031215   12.157596    6.845442     0.869456     9.876048
   61    0.000000    4.801719   14.138155    6.870579     0.835367    10.061857
   62    3.177510    4.801719   14.138155    6.882951     0.835366    10.245495
   63    6.355029    4.801719   14.138155    6.876765     0.835366    10.153676
   64    1.588760    0.373215   15.365510    6.952738     0.868773    10.528764
   65    4.766269    0.373215   15.365510    6.949586     0.868773    10.480858
   66    7.943779    0.373215   15.365510    6.955890     0.868773    10.576670
   67    0.000000    4.801719   16.592864    6.846793     0.852389     9.824498
   68    3.177510    4.801719   16.592864    6.859769     0.852388    10.012302
   69    6.355029    4.801719   16.592864    6.853281     0.852388     9.918400
   70    1.588760    2.827931   15.365510    6.855178     0.868773     9.919788
   71    4.766269    2.827931   15.365510    6.852025     0.868773     9.871883
   72    7.943779    2.827931   15.365510    6.858330     0.868773     9.967694
   73    0.000000    1.600573   17.339275    6.851199     0.859660     9.861382
   74    3.177510    1.600573   17.339275    6.863123     0.859659    10.035300
   75    6.355029    1.600573   17.339275    6.857161     0.859659     9.948341
   76    1.588760    3.574361   18.566629    6.966897     0.896394    10.599061
   77    4.766269    3.574361   18.566629    6.963106     0.896396    10.541088
   78    7.943779    3.574361   18.566629    6.967158     0.896394    10.601838
   79    0.000000    1.600573   19.793983    6.874637     0.828031    10.087285
   80    3.177510    1.600573   19.793983    6.888571     0.828030    10.296265
   81    6.355029    1.600573   19.793983    6.881604     0.828030    10.191775
   82    1.588760    6.029077   18.566629    6.854306     0.883298     9.900869
   83    4.766269    6.029077   18.566629    6.851691     0.883298     9.861295
   84    7.943779    6.029077   18.566629    6.856920     0.883298     9.940443
   85    0.000000    4.801719   20.546112    6.869539     0.829987    10.055608
   86    3.177510    4.801719   20.546112    6.887891     0.829986    10.321520
   87    6.355029    4.801719   20.546112    6.878715     0.829986    10.188564
   88    1.588760    0.371077   21.774599    6.930227     0.866133    10.422538
   89    4.766269    0.371077   21.774599    6.927014     0.866133    10.373591
   90    7.943779    0.371077   21.774599    6.933439     0.866133    10.471486
   91    0.000000    4.801719   23.014748    6.877270     0.885388    10.155325
   92    3.177510    4.801719   23.014748    6.890643     0.885386    10.354238
   93    6.355029    4.801719   23.014748    6.883956     0.885386    10.254781
   94    1.588760    2.830069   21.774599    6.853232     0.866133     9.942006
   95    4.766269    2.830069   21.774599    6.848608     0.866133     9.871015
   96    7.943779    2.830069   21.774599    6.853622     0.866133     9.946866
   97    0.000000    1.600573   23.745250    6.864760     0.852389     9.971166
   98    3.177510    1.600573   23.745250    6.873946     0.852388    10.106899
   99    6.355029    1.600573   23.745250    6.869353     0.852388    10.039032
  100    1.588760    3.579592   24.947128    6.934672     0.892555    10.925202
  101    4.766269    3.579592   24.947128    6.933764     0.892558    10.911489
  102    7.943779    3.579592   24.947128    6.935579     0.892555    10.938914
  103    0.000000    1.600573   26.151214    6.697735     0.876586    61.094760
  104    3.177510    1.600573   26.151214    6.709395     0.876583    89.697271
  105    6.355029    1.600573   26.151214    6.703565     0.876583    75.396015
  106    1.588760    6.023846   24.947128    6.850957     0.892555    10.303815
  107    4.766269    6.023846   24.947128    6.849531     0.892558    10.282466
  108    7.943779    6.023846   24.947128    6.850827     0.892555    10.302253
  109    0.000000    1.600573    7.081165    6.454757     0.768172   152.582768
  110    0.000000    4.801719   26.850860    6.451610     0.799162   130.455171
  111    3.177510    1.600573    7.081165    6.486606     0.768172   493.327525
  112    6.355029    4.801719   26.850860    6.488778     0.799162   486.105733
  113    6.355029    1.600573    7.081165    6.470681     0.768172   334.502776
  114    3.177510    4.801719   26.850860    6.470194     0.799162   308.280452
 --------------------------------------------------------------------------------
    VACUUM CHARGE:               0.0000
    VACUUM VOLUME:               0.0000
    NUMBER OF ELECTRONS:      1080.0000
