  114  114    1    2
  0.3030888E+02  0.9532539E-09  0.6402292E-09  0.5661490E-08  0.5000000E-15
  1.000000000000000E-004
  CAR 
 IrO2-110	                               
   1080     20    720
 
  0.0000000E+00  0.0000000E+00  0.0000000E+00  0.2083333E-01
      1        -96.470589      -96.152319   1.000000   1.000000
      2        -96.468985      -96.150672   1.000000   1.000000
      3        -96.468985      -96.150672   1.000000   1.000000
      4        -96.467944      -96.149674   1.000000   1.000000
      5        -96.466340      -96.148027   1.000000   1.000000
      6        -96.466340      -96.148027   1.000000   1.000000
      7        -95.634629      -95.703073   1.000000   1.000000
      8        -95.633880      -95.702423   1.000000   1.000000
      9        -95.632941      -95.701405   1.000000   1.000000
     10        -95.632941      -95.701405   1.000000   1.000000
     11        -95.632199      -95.700756   1.000000   1.000000
     12        -95.632199      -95.700756   1.000000   1.000000
     13        -95.630531      -95.624847   1.000000   1.000000
     14        -95.630241      -95.624522   1.000000   1.000000
     15        -95.628772      -95.623249   1.000000   1.000000
     16        -95.628772      -95.623023   1.000000   1.000000
     17        -95.628489      -95.623023   1.000000   1.000000
     18        -95.628489      -95.622737   1.000000   1.000000
     19        -95.625294      -95.622737   1.000000   1.000000
     20        -95.624983      -95.622464   1.000000   1.000000
     21        -95.623694      -95.621645   1.000000   1.000000
     22        -95.623694      -95.621645   1.000000   1.000000
     23        -95.623425      -95.620845   1.000000   1.000000
     24        -95.623425      -95.620845   1.000000   1.000000
     25        -95.603312      -95.619313   1.000000   1.000000
     26        -95.602662      -95.619013   1.000000   1.000000
     27        -95.601631      -95.617699   1.000000   1.000000
     28        -95.601631      -95.617699   1.000000   1.000000
     29        -95.600982      -95.617430   1.000000   1.000000
     30        -95.600982      -95.617430   1.000000   1.000000
     31        -95.551917      -95.608727   1.000000   1.000000
     32        -95.551110      -95.607980   1.000000   1.000000
     33        -95.550268      -95.607082   1.000000   1.000000
     34        -95.550268      -95.607082   1.000000   1.000000
     35        -95.549465      -95.606340   1.000000   1.000000
     36        -95.549465      -95.606340   1.000000   1.000000
     37        -53.591123      -53.094213   1.000000   1.000000
     38        -53.588107      -53.091192   1.000000   1.000000
     39        -53.586486      -53.089512   1.000000   1.000000
     40        -53.586486      -53.089512   1.000000   1.000000
     41        -53.583469      -53.086491   1.000000   1.000000
     42        -53.583469      -53.086491   1.000000   1.000000
     43        -53.350794      -53.011412   1.000000   1.000000
     44        -53.350794      -53.011412   1.000000   1.000000
     45        -53.348302      -53.008920   1.000000   1.000000
     46        -53.348302      -53.008920   1.000000   1.000000
     47        -53.278695      -52.937918   1.000000   1.000000
     48        -53.276199      -52.935423   1.000000   1.000000
     49        -53.041125      -52.767952   1.000000   1.000000
     50        -53.038670      -52.767134   1.000000   1.000000
     51        -53.030250      -52.759377   1.000000   1.000000
     52        -53.030250      -52.759377   1.000000   1.000000
     53        -53.027791      -52.758659   1.000000   1.000000
     54        -53.027791      -52.758659   1.000000   1.000000
     55        -52.606056      -52.694705   1.000000   1.000000
     56        -52.605370      -52.692382   1.000000   1.000000
     57        -52.602290      -52.688388   1.000000   1.000000
     58        -52.602290      -52.688388   1.000000   1.000000
     59        -52.601603      -52.685964   1.000000   1.000000
     60        -52.601603      -52.685964   1.000000   1.000000
     61        -52.581983      -52.618491   1.000000   1.000000
     62        -52.581210      -52.617692   1.000000   1.000000
     63        -52.578346      -52.613233   1.000000   1.000000
     64        -52.578346      -52.613233   1.000000   1.000000
     65        -52.577630      -52.612434   1.000000   1.000000
     66        -52.577630      -52.612434   1.000000   1.000000
     67        -52.576245      -52.582492   1.000000   1.000000
     68        -52.575676      -52.582492   1.000000   1.000000
     69        -52.572852      -52.581837   1.000000   1.000000
     70        -52.572209      -52.581837   1.000000   1.000000
     71        -52.570482      -52.566230   1.000000   1.000000
     72        -52.570482      -52.565657   1.000000   1.000000
     73        -52.570185      -52.562992   1.000000   1.000000
     74        -52.570185      -52.562269   1.000000   1.000000
     75        -52.568880      -52.560464   1.000000   1.000000
     76        -52.568880      -52.560464   1.000000   1.000000
     77        -52.568579      -52.560166   1.000000   1.000000
     78        -52.568579      -52.560166   1.000000   1.000000
     79        -52.539236      -52.558923   1.000000   1.000000
     80        -52.539236      -52.558923   1.000000   1.000000
     81        -52.537559      -52.558629   1.000000   1.000000
     82        -52.537559      -52.558629   1.000000   1.000000
     83        -52.535404      -52.540774   1.000000   1.000000
     84        -52.535404      -52.539981   1.000000   1.000000
     85        -52.534406      -52.536411   1.000000   1.000000
     86        -52.534406      -52.536411   1.000000   1.000000
     87        -52.533503      -52.535709   1.000000   1.000000
     88        -52.533503      -52.535709   1.000000   1.000000
     89        -52.532895      -52.533123   1.000000   1.000000
     90        -52.532895      -52.533123   1.000000   1.000000
     91        -52.506473      -52.532774   1.000000   1.000000
     92        -52.506473      -52.532774   1.000000   1.000000
     93        -52.505818      -52.526478   1.000000   1.000000
     94        -52.505818      -52.526478   1.000000   1.000000
     95        -52.499041      -52.525736   1.000000   1.000000
     96        -52.498243      -52.525736   1.000000   1.000000
     97        -52.492865      -52.513832   1.000000   1.000000
     98        -52.492865      -52.513832   1.000000   1.000000
     99        -52.492067      -52.513463   1.000000   1.000000
    100        -52.492067      -52.513463   1.000000   1.000000
    101        -52.466383      -52.505118   1.000000   1.000000
    102        -52.463647      -52.504465   1.000000   1.000000
    103        -52.460557      -52.481231   1.000000   1.000000
    104        -52.458878      -52.481231   1.000000   1.000000
    105        -52.457731      -52.480431   1.000000   1.000000
    106        -52.456626      -52.480431   1.000000   1.000000
    107        -52.430241      -52.458204   1.000000   1.000000
    108        -52.429587      -52.457209   1.000000   1.000000
    109        -52.411980      -52.451089   1.000000   1.000000
    110        -52.411980      -52.450357   1.000000   1.000000
    111        -52.411177      -52.440829   1.000000   1.000000
    112        -52.411177      -52.439721   1.000000   1.000000
    113        -52.337412      -52.407167   1.000000   1.000000
    114        -52.336601      -52.406354   1.000000   1.000000
    115        -52.324177      -52.311666   1.000000   1.000000
    116        -52.323431      -52.310840   1.000000   1.000000
    117        -52.316145      -52.309234   1.000000   1.000000
    118        -52.315886      -52.309053   1.000000   1.000000
    119        -52.315092      -52.308956   1.000000   1.000000
    120        -52.315092      -52.308793   1.000000   1.000000
    121        -52.314349      -52.300808   1.000000   1.000000
    122        -52.314349      -52.300808   1.000000   1.000000
    123        -52.306410      -52.300005   1.000000   1.000000
    124        -52.306410      -52.300005   1.000000   1.000000
    125        -52.306151      -52.299323   1.000000   1.000000
    126        -52.306151      -52.299323   1.000000   1.000000
    127        -52.300326      -52.299064   1.000000   1.000000
    128        -52.300022      -52.299064   1.000000   1.000000
    129        -52.289460      -52.298562   1.000000   1.000000
    130        -52.289460      -52.298562   1.000000   1.000000
    131        -52.289200      -52.298303   1.000000   1.000000
    132        -52.289200      -52.298303   1.000000   1.000000
    133        -52.237527      -52.278396   1.000000   1.000000
    134        -52.236673      -52.277652   1.000000   1.000000
    135        -52.226606      -52.268361   1.000000   1.000000
    136        -52.226606      -52.268361   1.000000   1.000000
    137        -52.225802      -52.267618   1.000000   1.000000
    138        -52.225802      -52.267618   1.000000   1.000000
    139        -52.116810      -52.257676   1.000000   1.000000
    140        -52.116182      -52.257047   1.000000   1.000000
    141        -52.105591      -52.246665   1.000000   1.000000
    142        -52.105591      -52.246665   1.000000   1.000000
    143        -52.104968      -52.246042   1.000000   1.000000
    144        -52.104968      -52.246042   1.000000   1.000000
    145        -23.147476      -23.147107   1.000000   1.000000
    146        -22.994060      -22.998968   1.000000   1.000000
    147        -22.859128      -22.860832   1.000000   1.000000
    148        -22.722715      -22.725335   1.000000   1.000000
    149        -22.615223      -22.623232   1.000000   1.000000
    150        -22.571682      -22.574382   1.000000   1.000000
    151        -22.416621      -22.415807   1.000000   1.000000
    152        -22.332330      -22.333224   1.000000   1.000000
    153        -22.332330      -22.333224   1.000000   1.000000
    154        -22.231212      -22.235130   1.000000   1.000000
    155        -22.231212      -22.235130   1.000000   1.000000
    156        -22.165103      -22.172304   1.000000   1.000000
    157        -22.142940      -22.146007   1.000000   1.000000
    158        -22.142940      -22.146007   1.000000   1.000000
    159        -22.048419      -22.056872   1.000000   1.000000
    160        -22.048419      -22.056872   1.000000   1.000000
    161        -22.002274      -22.006365   1.000000   1.000000
    162        -21.983375      -21.993848   1.000000   1.000000
    163        -21.981819      -21.993848   1.000000   1.000000
    164        -21.981819      -21.992918   1.000000   1.000000
    165        -21.953705      -21.959166   1.000000   1.000000
    166        -21.953705      -21.959166   1.000000   1.000000
    167        -21.858134      -21.862422   1.000000   1.000000
    168        -21.858134      -21.862422   1.000000   1.000000
    169        -21.830694      -21.838672   1.000000   1.000000
    170        -21.814052      -21.821361   1.000000   1.000000
    171        -21.741914      -21.742872   1.000000   1.000000
    172        -21.741914      -21.742872   1.000000   1.000000
    173        -21.706080      -21.698616   1.000000   1.000000
    174        -21.706080      -21.698616   1.000000   1.000000
    175        -21.689987      -21.680165   1.000000   1.000000
    176        -21.689987      -21.680165   1.000000   1.000000
    177        -21.525579      -21.525306   1.000000   1.000000
    178        -21.525579      -21.525306   1.000000   1.000000
    179        -21.501882      -21.520585   1.000000   1.000000
    180        -21.501882      -21.520585   1.000000   1.000000
    181        -21.493442      -21.507164   1.000000   1.000000
    182        -21.493442      -21.507164   1.000000   1.000000
    183        -21.483323      -21.496909   1.000000   1.000000
    184        -21.483323      -21.496909   1.000000   1.000000
    185        -21.474909      -21.481392   1.000000   1.000000
    186        -21.474909      -21.481392   1.000000   1.000000
    187        -21.447371      -21.453378   1.000000   1.000000
    188        -21.447371      -21.453378   1.000000   1.000000
    189        -21.427012      -21.432946   1.000000   1.000000
    190        -21.427012      -21.432946   1.000000   1.000000
    191        -21.419137      -21.424397   1.000000   1.000000
    192        -21.419137      -21.424397   1.000000   1.000000
    193        -21.415543      -21.410828   1.000000   1.000000
    194        -21.415543      -21.410828   1.000000   1.000000
    195        -21.407219      -21.392637   1.000000   1.000000
    196        -21.407219      -21.392637   1.000000   1.000000
    197        -21.356869      -21.307813   1.000000   1.000000
    198        -21.356869      -21.307813   1.000000   1.000000
    199        -21.339655      -21.299592   1.000000   1.000000
    200        -21.339655      -21.299592   1.000000   1.000000
    201        -21.259675      -21.240258   1.000000   1.000000
    202        -21.243097      -21.218378   1.000000   1.000000
    203        -21.155008      -21.155505   1.000000   1.000000
    204        -21.127166      -21.134377   1.000000   1.000000
    205        -21.112957      -21.101454   1.000000   1.000000
    206        -21.092358      -21.065828   1.000000   1.000000
    207        -21.065904      -21.041003   1.000000   1.000000
    208        -21.055886      -21.029484   1.000000   1.000000
    209        -21.020108      -21.022600   1.000000   1.000000
    210        -21.016036      -20.975197   1.000000   1.000000
    211        -20.679301      -20.201353   1.000000   1.000000
    212        -20.672603      -20.201353   1.000000   1.000000
    213        -20.659551      -20.201260   1.000000   1.000000
    214        -20.659551      -20.201260   1.000000   1.000000
    215        -20.658343      -20.070484   1.000000   1.000000
    216        -20.658343      -20.070006   1.000000   1.000000
    217        -20.089087      -19.637772   1.000000   1.000000
    218        -20.089087      -19.636187   1.000000   1.000000
    219        -20.088996      -19.547138   1.000000   1.000000
    220        -20.088996      -19.547138   1.000000   1.000000
    221        -19.976682      -19.545551   1.000000   1.000000
    222        -19.975889      -19.545551   1.000000   1.000000
    223        -11.773849      -11.751561   1.000000   1.000000
    224        -11.769809      -11.742024   1.000000   1.000000
    225        -11.736692      -11.729984   1.000000   1.000000
    226        -11.707109      -11.705176   1.000000   1.000000
    227        -11.693243      -11.701715   1.000000   1.000000
    228        -11.692520      -11.700051   1.000000   1.000000
    229        -11.395082      -11.390136   1.000000   1.000000
    230        -11.357737      -11.353521   1.000000   1.000000
    231        -10.758089      -10.743917   1.000000   1.000000
    232        -10.731809      -10.722802   1.000000   1.000000
    233        -10.729641      -10.722802   1.000000   1.000000
    234        -10.729641      -10.719737   1.000000   1.000000
    235        -10.728475      -10.719737   1.000000   1.000000
    236        -10.728475      -10.717232   1.000000   1.000000
    237        -10.703064      -10.699117   1.000000   1.000000
    238        -10.703064      -10.699117   1.000000   1.000000
    239        -10.677888      -10.683290   1.000000   1.000000
    240        -10.677888      -10.683290   1.000000   1.000000
    241        -10.669515      -10.671635   1.000000   1.000000
    242        -10.669515      -10.671635   1.000000   1.000000
    243        -10.652167      -10.661850   1.000000   1.000000
    244        -10.652167      -10.661850   1.000000   1.000000
    245        -10.529671      -10.526553   1.000000   1.000000
    246        -10.529671      -10.526553   1.000000   1.000000
    247        -10.436891      -10.435640   1.000000   1.000000
    248        -10.436891      -10.435640   1.000000   1.000000
    249        -10.230094      -10.212033   1.000000   1.000000
    250        -10.228421      -10.212033   1.000000   1.000000
    251        -10.217832      -10.136698   1.000000   1.000000
    252        -10.217832      -10.136698   1.000000   1.000000
    253        -10.140163      -10.122651   1.000000   1.000000
    254        -10.140163      -10.121032   1.000000   1.000000
    255        -10.075026      -10.070737   1.000000   1.000000
    256        -10.043071      -10.039867   1.000000   1.000000
    257        -10.012298      -10.010727   1.000000   1.000000
    258        -10.001315       -9.998861   1.000000   1.000000
    259         -9.985266       -9.984317   1.000000   1.000000
    260         -9.973007       -9.981717   1.000000   1.000000
    261         -9.955117       -9.957226   1.000000   1.000000
    262         -9.955117       -9.942407   1.000000   1.000000
    263         -9.945268       -9.942407   1.000000   1.000000
    264         -9.928445       -9.925490   1.000000   1.000000
    265         -9.928445       -9.925490   1.000000   1.000000
    266         -9.921976       -9.917027   1.000000   1.000000
    267         -9.905106       -9.880296   1.000000   1.000000
    268         -9.905106       -9.880296   1.000000   1.000000
    269         -9.873776       -9.877281   1.000000   1.000000
    270         -9.873776       -9.877281   1.000000   1.000000
    271         -9.851165       -9.837683   1.000000   1.000000
    272         -9.851165       -9.837683   1.000000   1.000000
    273         -9.826764       -9.813707   1.000000   1.000000
    274         -9.826764       -9.813707   1.000000   1.000000
    275         -9.785511       -9.763417   1.000000   1.000000
    276         -9.785511       -9.762025   1.000000   1.000000
    277         -9.764019       -9.736143   1.000000   1.000000
    278         -9.749356       -9.702545   1.000000   1.000000
    279         -9.725339       -9.702545   1.000000   1.000000
    280         -9.703504       -9.690483   1.000000   1.000000
    281         -9.703504       -9.690483   1.000000   1.000000
    282         -9.667152       -9.582860   1.000000   1.000000
    283         -9.667152       -9.582860   1.000000   1.000000
    284         -9.526495       -9.559063   1.000000   1.000000
    285         -9.520176       -9.554188   1.000000   1.000000
    286         -9.515705       -9.516727   1.000000   1.000000
    287         -9.507982       -9.516727   1.000000   1.000000
    288         -9.507982       -9.503540   1.000000   1.000000
    289         -9.464686       -9.418485   1.000000   1.000000
    290         -9.464686       -9.418485   1.000000   1.000000
    291         -9.458642       -9.397225   1.000000   1.000000
    292         -9.458642       -9.397225   1.000000   1.000000
    293         -9.373139       -9.374376   1.000000   1.000000
    294         -9.373139       -9.374376   1.000000   1.000000
    295         -9.277403       -9.246772   1.000000   1.000000
    296         -9.277403       -9.246772   1.000000   1.000000
    297         -9.230048       -9.156612   1.000000   1.000000
    298         -9.103567       -9.053198   1.000000   1.000000
    299         -9.103567       -9.053198   1.000000   1.000000
    300         -9.096282       -9.047800   1.000000   1.000000
    301         -9.096282       -9.047800   1.000000   1.000000
    302         -9.020644       -8.989483   1.000000   1.000000
    303         -9.020644       -8.989483   1.000000   1.000000
    304         -8.949284       -8.907968   1.000000   1.000000
    305         -8.949284       -8.907968   1.000000   1.000000
    306         -8.860375       -8.824532   1.000000   1.000000
    307         -8.860375       -8.824532   1.000000   1.000000
    308         -8.853052       -8.808053   1.000000   1.000000
    309         -8.853052       -8.808053   1.000000   1.000000
    310         -8.824936       -8.743597   1.000000   1.000000
    311         -8.743714       -8.743597   1.000000   1.000000
    312         -8.743714       -8.715884   1.000000   1.000000
    313         -8.636925       -8.636803   1.000000   1.000000
    314         -8.636925       -8.636803   1.000000   1.000000
    315         -8.606694       -8.595951   1.000000   1.000000
    316         -8.606694       -8.595951   1.000000   1.000000
    317         -8.519952       -8.525372   1.000000   1.000000
    318         -8.519952       -8.525372   1.000000   1.000000
    319         -8.500861       -8.472370   1.000000   1.000000
    320         -8.500861       -8.472370   1.000000   1.000000
    321         -8.453294       -8.329948   1.000000   1.000000
    322         -8.414428       -8.293569   1.000000   1.000000
    323         -8.356817       -8.280388   1.000000   1.000000
    324         -8.334436       -8.280388   1.000000   1.000000
    325         -8.334436       -8.227580   1.000000   1.000000
    326         -8.212908       -7.981953   1.000000   1.000000
    327         -8.212908       -7.981953   1.000000   1.000000
    328         -8.158301       -7.977306   1.000000   1.000000
    329         -8.158301       -7.977306   1.000000   1.000000
    330         -8.111408       -7.959502   1.000000   1.000000
    331         -8.111408       -7.959502   1.000000   1.000000
    332         -7.868126       -7.734968   1.000000   1.000000
    333         -7.868126       -7.734968   1.000000   1.000000
    334         -7.787705       -7.671678   1.000000   1.000000
    335         -7.638174       -7.575578   1.000000   1.000000
    336         -7.638174       -7.573985   1.000000   1.000000
    337         -7.634643       -7.573985   1.000000   1.000000
    338         -7.630275       -7.549734   1.000000   1.000000
    339         -7.482126       -7.467465   1.000000   1.000000
    340         -7.482126       -7.467465   1.000000   1.000000
    341         -7.453483       -7.431403   1.000000   1.000000
    342         -7.441393       -7.431403   1.000000   1.000000
    343         -7.441393       -7.392293   1.000000   1.000000
    344         -7.397327       -7.392293   1.000000   1.000000
    345         -7.386881       -7.370191   1.000000   1.000000
    346         -7.386881       -7.370191   1.000000   1.000000
    347         -7.386029       -7.311331   1.000000   1.000000
    348         -7.386029       -7.296752   1.000000   1.000000
    349         -7.301495       -7.286234   1.000000   1.000000
    350         -7.299790       -7.286234   1.000000   1.000000
    351         -7.299790       -7.275423   1.000000   1.000000
    352         -7.256077       -7.251779   1.000000   1.000000
    353         -7.235599       -7.251779   1.000000   1.000000
    354         -7.235599       -7.209681   1.000000   1.000000
    355         -7.222608       -7.198292   1.000000   1.000000
    356         -7.220424       -7.158174   1.000000   1.000000
    357         -7.220424       -7.158174   1.000000   1.000000
    358         -7.197802       -7.150537   1.000000   1.000000
    359         -7.197802       -7.150537   1.000000   1.000000
    360         -7.154964       -7.123247   1.000000   1.000000
    361         -7.154964       -7.081446   1.000000   1.000000
    362         -7.115177       -7.081446   1.000000   1.000000
    363         -7.109397       -7.076389   1.000000   1.000000
    364         -7.061526       -7.025210   1.000000   1.000000
    365         -7.061526       -7.025210   1.000000   1.000000
    366         -7.056082       -6.992256   1.000000   1.000000
    367         -7.056082       -6.989590   1.000000   1.000000
    368         -7.037690       -6.983335   1.000000   1.000000
    369         -7.037690       -6.983335   1.000000   1.000000
    370         -7.014661       -6.941695   1.000000   1.000000
    371         -6.982622       -6.904357   1.000000   1.000000
    372         -6.950093       -6.904357   1.000000   1.000000
    373         -6.939195       -6.839082   1.000000   1.000000
    374         -6.939195       -6.839082   1.000000   1.000000
    375         -6.817880       -6.662568   1.000000   1.000000
    376         -6.748231       -6.656911   1.000000   1.000000
    377         -6.687840       -6.643486   1.000000   1.000000
    378         -6.684349       -6.643486   1.000000   1.000000
    379         -6.668877       -6.605033   1.000000   1.000000
    380         -6.668877       -6.605033   1.000000   1.000000
    381         -6.630696       -6.588277   1.000000   1.000000
    382         -6.630696       -6.588277   1.000000   1.000000
    383         -6.614960       -6.570167   1.000000   1.000000
    384         -6.614960       -6.547268   1.000000   1.000000
    385         -6.562279       -6.542322   1.000000   1.000000
    386         -6.549461       -6.542322   1.000000   1.000000
    387         -6.549461       -6.490363   1.000000   1.000000
    388         -6.543818       -6.490363   1.000000   1.000000
    389         -6.511520       -6.478131   1.000000   1.000000
    390         -6.511520       -6.420618   1.000000   1.000000
    391         -6.468141       -6.417398   1.000000   1.000000
    392         -6.451184       -6.409502   1.000000   1.000000
    393         -6.451184       -6.409502   1.000000   1.000000
    394         -6.419100       -6.379106   1.000000   1.000000
    395         -6.388132       -6.379106   1.000000   1.000000
    396         -6.388132       -6.371296   1.000000   1.000000
    397         -6.377549       -6.323517   1.000000   1.000000
    398         -6.357889       -6.316993   1.000000   1.000000
    399         -6.347364       -6.296976   1.000000   1.000000
    400         -6.329920       -6.296294   1.000000   1.000000
    401         -6.329920       -6.296294   1.000000   1.000000
    402         -6.319829       -6.273389   1.000000   1.000000
    403         -6.312613       -6.210538   1.000000   1.000000
    404         -6.312613       -6.175073   1.000000   1.000000
    405         -6.306441       -6.175073   1.000000   1.000000
    406         -6.303196       -6.131882   1.000000   1.000000
    407         -6.142919       -6.014092   1.000000   1.000000
    408         -6.142919       -6.014092   1.000000   1.000000
    409         -6.072776       -5.970306   1.000000   1.000000
    410         -6.066835       -5.914724   1.000000   1.000000
    411         -6.066835       -5.832299   1.000000   1.000000
    412         -6.025511       -5.832299   1.000000   1.000000
    413         -6.000845       -5.776334   1.000000   1.000000
    414         -5.985685       -5.726764   1.000000   1.000000
    415         -5.902281       -5.724006   1.000000   1.000000
    416         -5.902281       -5.724006   1.000000   1.000000
    417         -5.836027       -5.709806   1.000000   1.000000
    418         -5.836027       -5.709806   1.000000   1.000000
    419         -5.803442       -5.702479   1.000000   1.000000
    420         -5.803442       -5.702479   1.000000   1.000000
    421         -5.760187       -5.694185   1.000000   1.000000
    422         -5.730367       -5.642199   1.000000   1.000000
    423         -5.719689       -5.628881   1.000000   1.000000
    424         -5.709024       -5.628881   1.000000   1.000000
    425         -5.709024       -5.605098   1.000000   1.000000
    426         -5.635105       -5.594573   1.000000   1.000000
    427         -5.545795       -5.564933   1.000000   1.000000
    428         -5.545795       -5.564933   1.000000   1.000000
    429         -5.539164       -5.492143   1.000000   1.000000
    430         -5.463281       -5.445367   1.000000   1.000000
    431         -5.413175       -5.420904   1.000000   1.000000
    432         -5.325391       -5.309527   1.000000   1.000000
    433         -5.325391       -5.309527   1.000000   1.000000
    434         -5.305794       -5.288141   1.000000   1.000000
    435         -5.305794       -5.261977   1.000000   1.000000
    436         -5.291230       -5.261977   1.000000   1.000000
    437         -5.286238       -5.215619   1.000000   1.000000
    438         -5.275167       -5.215619   1.000000   1.000000
    439         -5.275167       -5.159010   1.000000   1.000000
    440         -5.182743       -5.151432   1.000000   1.000000
    441         -5.182743       -5.151432   1.000000   1.000000
    442         -5.110519       -5.087308   1.000000   1.000000
    443         -5.018463       -4.987307   1.000000   1.000000
    444         -4.961431       -4.973538   1.000000   1.000000
    445         -4.957378       -4.973538   1.000000   1.000000
    446         -4.957378       -4.922792   1.000000   1.000000
    447         -4.955261       -4.922792   1.000000   1.000000
    448         -4.955261       -4.882198   1.000000   1.000000
    449         -4.947849       -4.739926   1.000000   1.000000
    450         -4.947849       -4.730847   1.000000   1.000000
    451         -4.911677       -4.703241   1.000000   1.000000
    452         -4.877265       -4.618397   1.000000   1.000000
    453         -4.877265       -4.617553   1.000000   1.000000
    454         -4.859577       -4.606285   1.000000   1.000000
    455         -4.772314       -4.605476   1.000000   1.000000
    456         -4.613184       -4.578715   1.000000   1.000000
    457         -4.611534       -4.573632   1.000000   1.000000
    458         -4.583993       -4.525200   1.000000   1.000000
    459         -4.580215       -4.523075   1.000000   1.000000
    460         -4.547986       -4.515981   1.000000   1.000000
    461         -4.535632       -4.502198   1.000000   1.000000
    462         -4.534557       -4.484668   1.000000   1.000000
    463         -4.533711       -4.310875   1.000000   1.000000
    464         -4.528469       -4.310875   1.000000   1.000000