       N       E                     dE             d eps       ncg     rms          rms(c)
DAV:   1     0.140977311004E+05    0.14098E+05   -0.61015E+05 68912   0.134E+03
DAV:   2     0.393874302696E+03   -0.13704E+05   -0.13042E+05 79392   0.561E+02
DAV:   3    -0.100076019266E+04   -0.13946E+04   -0.13610E+04 69344   0.162E+02
DAV:   4    -0.105631253130E+04   -0.55552E+02   -0.54242E+02 80384   0.403E+01
DAV:   5    -0.105803433235E+04   -0.17218E+01   -0.16917E+01 74896   0.626E+00
DAV:   6    -0.105811002858E+04   -0.75696E-01   -0.75316E-01 80352   0.143E+00
DAV:   7    -0.105811346497E+04   -0.34364E-02   -0.34309E-02 74336   0.254E-01
DAV:   8    -0.105811366685E+04   -0.20188E-03   -0.20171E-03 76864   0.613E-02    0.356E+02
DAV:   9    -0.680738017399E+03    0.37738E+03   -0.15080E+03 75280   0.640E+01    0.275E+02
DAV:  10    -0.714554096266E+03   -0.33816E+02   -0.60337E+02 79760   0.488E+01    0.162E+02
DAV:  11    -0.595785787471E+03    0.11877E+03   -0.24814E+02 79872   0.317E+01    0.911E+01
DAV:  12    -0.581820525603E+03    0.13965E+02   -0.33833E+02 76336   0.270E+01    0.160E+02
DAV:  13    -0.539171496689E+03    0.42649E+02   -0.60771E+01 73792   0.135E+01    0.683E+01
DAV:  14    -0.524742448545E+03    0.14429E+02   -0.33340E+01 74864   0.816E+00    0.513E+01
DAV:  15    -0.538789550995E+03   -0.14047E+02   -0.18927E+01 72000   0.579E+00    0.410E+01
DAV:  16    -0.547106486061E+03   -0.83169E+01   -0.11117E+00 62928   0.167E+00    0.399E+01
DAV:  17    -0.582366545662E+03   -0.35260E+02   -0.83172E+00 70480   0.389E+00    0.330E+01
DAV:  18    -0.638982989686E+03   -0.56616E+02   -0.28654E+01 71024   0.783E+00    0.312E+01
DAV:  19    -0.652369367503E+03   -0.13386E+02   -0.58815E+00 70736   0.335E+00    0.267E+01
DAV:  20    -0.661012004203E+03   -0.86426E+01   -0.17306E+00 69936   0.201E+00    0.262E+01
DAV:  21    -0.672548614414E+03   -0.11537E+02   -0.24417E+00 68752   0.224E+00    0.248E+01
DAV:  22    -0.686251158604E+03   -0.13703E+02   -0.44147E+00 69680   0.275E+00    0.257E+01
DAV:  23    -0.691874539914E+03   -0.56234E+01   -0.10284E+00 65728   0.140E+00    0.244E+01
DAV:  24    -0.701397640960E+03   -0.95231E+01   -0.20777E+00 65824   0.176E+00    0.213E+01
DAV:  25    -0.715374613100E+03   -0.13977E+02   -0.30606E+00 71760   0.223E+00    0.214E+01
DAV:  26    -0.734793335646E+03   -0.19419E+02   -0.84577E+00 69184   0.357E+00    0.193E+01
DAV:  27    -0.754293341470E+03   -0.19500E+02   -0.15791E+01 69344   0.458E+00    0.179E+01
DAV:  28    -0.772002900521E+03   -0.17710E+02   -0.11551E+01 72672   0.378E+00    0.176E+01
DAV:  29    -0.775868305837E+03   -0.38654E+01   -0.96493E+00 66864   0.336E+00    0.165E+01
DAV:  30    -0.779650862353E+03   -0.37826E+01   -0.11247E+00 71024   0.177E+00    0.151E+01
DAV:  31    -0.786060580701E+03   -0.64097E+01   -0.11218E+00 68544   0.167E+00    0.120E+01
DAV:  32    -0.791823235703E+03   -0.57627E+01   -0.65126E-01 69632   0.148E+00    0.888E+00
DAV:  33    -0.799016913837E+03   -0.71937E+01   -0.78487E-01 67872   0.123E+00    0.639E+00
DAV:  34    -0.804391666772E+03   -0.53748E+01   -0.96373E-01 69856   0.139E+00    0.680E+00
DAV:  35    -0.802564496481E+03    0.18272E+01   -0.30689E-01 67984   0.821E-01    0.593E+00
DAV:  36    -0.802224127558E+03    0.34037E+00   -0.22905E-01 66928   0.668E-01    0.606E+00
DAV:  37    -0.803828370597E+03   -0.16042E+01   -0.24430E-01 71216   0.713E-01    0.498E+00
DAV:  38    -0.807262516099E+03   -0.34341E+01   -0.24234E-01 68768   0.668E-01    0.413E+00
DAV:  39    -0.808167535175E+03   -0.90502E+00   -0.94833E-02 66080   0.500E-01    0.340E+00
DAV:  40    -0.808925630822E+03   -0.75810E+00   -0.49481E-02 68384   0.332E-01    0.249E+00
DAV:  41    -0.810282887707E+03   -0.13573E+01   -0.58975E-02 69408   0.270E-01    0.178E+00
DAV:  42    -0.810525731208E+03   -0.24284E+00   -0.19592E-02 71424   0.170E-01    0.115E+00
DAV:  43    -0.810638399052E+03   -0.11267E+00   -0.10770E-02 72240   0.154E-01    0.701E-01
DAV:  44    -0.810738207977E+03   -0.99809E-01   -0.14224E-02 70480   0.156E-01    0.717E-01
DAV:  45    -0.810789088513E+03   -0.50881E-01   -0.73698E-03 75232   0.107E-01    0.830E-01
DAV:  46    -0.810830702840E+03   -0.41614E-01   -0.55197E-03 74192   0.107E-01    0.687E-01
DAV:  47    -0.810860224742E+03   -0.29522E-01   -0.29212E-03 74672   0.809E-02    0.481E-01
DAV:  48    -0.810887911284E+03   -0.27687E-01   -0.87187E-04 69776   0.462E-02    0.295E-01
DAV:  49    -0.810936917707E+03   -0.49006E-01   -0.33255E-03 72128   0.727E-02    0.191E-01
DAV:  50    -0.810951255017E+03   -0.14337E-01   -0.39701E-04 67696   0.406E-02    0.136E-01
DAV:  51    -0.810950699482E+03    0.55554E-03   -0.11370E-04 60672   0.169E-02    0.834E-02
DAV:  52    -0.810940264359E+03    0.10435E-01   -0.64880E-05 54160   0.127E-02    0.676E-02
DAV:  53    -0.810944398028E+03   -0.41337E-02   -0.43137E-05 51712   0.976E-03    0.515E-02
DAV:  54    -0.810952232833E+03   -0.78348E-02   -0.18969E-05 48640   0.707E-03    0.408E-02
DAV:  55    -0.810961814308E+03   -0.95815E-02   -0.19973E-05 51440   0.655E-03    0.306E-02
DAV:  56    -0.810968303313E+03   -0.64890E-02   -0.31965E-05 53152   0.787E-03    0.389E-02
DAV:  57    -0.810973040408E+03   -0.47371E-02   -0.40616E-05 52576   0.103E-02    0.351E-02
DAV:  58    -0.810988716751E+03   -0.15676E-01   -0.75899E-05 56624   0.958E-03    0.413E-02
DAV:  59    -0.811001335510E+03   -0.12619E-01   -0.10187E-04 57776   0.145E-02    0.189E-02
DAV:  60    -0.811007751691E+03   -0.64162E-02   -0.34279E-05 53520   0.882E-03    0.134E-02
DAV:  61    -0.811007447584E+03    0.30411E-03   -0.20088E-05 44544   0.694E-03    0.917E-03
DAV:  62    -0.811007360555E+03    0.87029E-04   -0.32291E-06 38272   0.343E-03    0.736E-03
DAV:  63    -0.811007304651E+03    0.55904E-04   -0.27810E-06 38544   0.298E-03    0.645E-03
DAV:  64    -0.811006177939E+03    0.11267E-02   -0.32735E-06 39616   0.296E-03    0.642E-03
DAV:  65    -0.811005801742E+03    0.37620E-03   -0.26649E-06 39072   0.273E-03    0.590E-03
DAV:  66    -0.811005451196E+03    0.35055E-03   -0.43892E-06 41648   0.297E-03    0.574E-03
DAV:  67    -0.811005752879E+03   -0.30168E-03   -0.22956E-06 40992   0.210E-03    0.519E-03
DAV:  68    -0.811005976714E+03   -0.22384E-03   -0.37864E-06 43328   0.217E-03    0.463E-03
DAV:  69    -0.811006252611E+03   -0.27590E-03   -0.18989E-06 39472   0.198E-03    0.447E-03
DAV:  70    -0.811006583961E+03   -0.33135E-03   -0.35340E-06 42192   0.187E-03    0.432E-03
DAV:  71    -0.811007025079E+03   -0.44112E-03   -0.20991E-06 39536   0.195E-03    0.425E-03
DAV:  72    -0.811007622139E+03   -0.59706E-03   -0.14916E-06 36368   0.212E-03    0.391E-03
DAV:  73    -0.811008307691E+03   -0.68555E-03   -0.16670E-06 38656   0.192E-03    0.287E-03
DAV:  74    -0.811009003485E+03   -0.69579E-03   -0.21416E-06 39088   0.183E-03    0.206E-03
DAV:  75    -0.811009173581E+03   -0.17010E-03   -0.31606E-06 39232   0.205E-03    0.147E-03
DAV:  76    -0.811009233071E+03   -0.59490E-04   -0.10240E-06 37600   0.162E-03    0.103E-03
DAV:  77    -0.811009292657E+03   -0.59585E-04   -0.13944E-06 38560   0.156E-03    0.807E-04
DAV:  78    -0.811009315925E+03   -0.23268E-04   -0.82902E-07 38000   0.136E-03    0.557E-04
DAV:  79    -0.811009327511E+03   -0.11586E-04   -0.47012E-07 36208   0.101E-03    0.481E-04
DAV:  80    -0.811009336497E+03   -0.89862E-05   -0.27400E-07 37744   0.728E-04
   1 F= -.81100934E+03 E0= -.81097460E+03  d E =-.694713E-01  mag=     6.0622
