 vasp.6.3.2 27Jun22 (build Apr 27 2024 20:17:35) complex                        
  
 executed on             LinuxIFC date 2024.09.30  12:57:44
 running on   80 total cores
 distrk:  each k-point on   80 cores,    1 groups
 distr:  one band on NCORE=   5 cores,   16 groups


--------------------------------------------------------------------------------------------------------


 INCAR:
   SYSTEM = IrO2-110	
   ENCUT = 500
   ALGO = Normal
   NELMIN = 6
   NELM = 300
   NELMDL = -8
   EDIFF = 1.0E-5
   LREAL = AUTO
   AMIN = 0.01
   PREC = Accurate
   ISPIN = 2
   NGX = 108
   NGY = 72
   NGZ = 640
   ADDGRID = .TRUE.
   LASPH = .TRUE.
   NSW = 0
   EDIFFG = -0.025
   IBRION = 2
   ISIF = 0
   POTIM = 0.50
   ISMEAR = 0
   SIGMA = 0.0500
   LORBIT = 10
   NEDOS = 6001
   NWRITE = 1
   LWAVE = .FALSE.
   LCHARG = .TRUE.
   LAECHG = .TRUE.
   NCORE = 5
   LPLANE = .TRUE.

 POTCAR:    PAW_PBE Ir_sv_GW 23Mar2010            
 POTCAR:    PAW_PBE O_GW_new 19Mar2012            
 -----------------------------------------------------------------------------
|                                                                             |
|           W    W    AA    RRRRR   N    N  II  N    N   GGGG   !!!           |
|           W    W   A  A   R    R  NN   N  II  NN   N  G    G  !!!           |
|           W    W  A    A  R    R  N N  N  II  N N  N  G       !!!           |
|           W WW W  AAAAAA  RRRRR   N  N N  II  N  N N  G  GGG   !            |
|           WW  WW  A    A  R   R   N   NN  II  N   NN  G    G                |
|           W    W  A    A  R    R  N    N  II  N    N   GGGG   !!!           |
|                                                                             |
|     You use a magnetic or noncollinear calculation, but did not specify     |
|     the initial magnetic moment with the MAGMOM tag. Note that a            |
|     default of 1 will be used for all atoms. This ferromagnetic setup       |
|     may break the symmetry of the crystal, in particular it may rule        |
|     out finding an antiferromagnetic solution. Thence, we recommend         |
|     setting the initial magnetic moment manually or verifying carefully     |
|     that this magnetic setup is desired.                                    |
|                                                                             |
 -----------------------------------------------------------------------------

 POTCAR:    PAW_PBE Ir_sv_GW 23Mar2010            
  local pseudopotential read in
  partial core-charges read in
  partial kinetic energy density read in
  kinetic energy density of atom read in
  atomic valenz-charges read in
  non local Contribution for L=           0  read in
    real space projection operators read in
  non local Contribution for L=           0  read in
    real space projection operators read in
  non local Contribution for L=           0  read in
    real space projection operators read in
  non local Contribution for L=           1  read in
    real space projection operators read in
  non local Contribution for L=           1  read in
    real space projection operators read in
  non local Contribution for L=           2  read in
    real space projection operators read in
  non local Contribution for L=           2  read in
    real space projection operators read in
  non local Contribution for L=           3  read in
    real space projection operators read in
    PAW grid and wavefunctions read in
 
   number of l-projection  operators is LMAX  =           8
   number of lm-projection operators is LMMAX =          26
 
 POTCAR:    PAW_PBE O_GW_new 19Mar2012            
  local pseudopotential read in
  partial core-charges read in
  partial kinetic energy density read in
  kinetic energy density of atom read in
  atomic valenz-charges read in
  non local Contribution for L=           0  read in
    real space projection operators read in
  non local Contribution for L=           0  read in
    real space projection operators read in
  non local Contribution for L=           0  read in
    real space projection operators read in
  non local Contribution for L=           1  read in
    real space projection operators read in
  non local Contribution for L=           1  read in
    real space projection operators read in
  non local Contribution for L=           1  read in
    real space projection operators read in
  non local Contribution for L=           2  read in
    real space projection operators read in
  non local Contribution for L=           2  read in
    real space projection operators read in
    PAW grid and wavefunctions read in
 
   number of l-projection  operators is LMAX  =           8
   number of lm-projection operators is LMMAX =          22
 
 Optimization of the real space projectors (new method)

 maximal supplied QI-value         = 16.25
 optimisation between [QCUT,QGAM] = [ 11.38, 22.75] = [ 36.24,144.96] Ry 
 Optimized for a Real-space Cutoff    1.56 Angstroem

   l    n(q)    QCUT    max X(q) W(low)/X(q) W(high)/X(q)  e(spline) 
   0     11    11.376   331.533    0.45E-04    0.10E-03    0.18E-05
   0     11    11.376   348.190    0.46E-04    0.10E-03    0.18E-05
   0     11    11.376     6.927    0.35E-04    0.83E-04    0.16E-05
   1     10    11.376     2.497    0.49E-05    0.43E-05    0.65E-07
   1     10    11.376     2.823    0.91E-05    0.21E-04    0.27E-06
   2     10    11.376    64.269    0.20E-03    0.53E-03    0.84E-06
   2     10    11.376    59.672    0.20E-03    0.54E-03    0.85E-06
   3      9    11.376     4.004    0.24E-03    0.21E-03    0.44E-06
 Optimization of the real space projectors (new method)

 maximal supplied QI-value         = 23.62
 optimisation between [QCUT,QGAM] = [ 11.34, 22.68] = [ 36.00,144.00] Ry 
 Optimized for a Real-space Cutoff    1.66 Angstroem

   l    n(q)    QCUT    max X(q) W(low)/X(q) W(high)/X(q)  e(spline) 
   0     11    11.338   116.464    0.17E-03    0.30E-03    0.79E-05
   0     11    11.338   116.329    0.16E-03    0.29E-03    0.76E-05
   0     11    11.338     0.942    0.79E-04    0.14E-03    0.33E-05
   1     11    11.338    54.336    0.24E-03    0.89E-03    0.12E-04
   1     11    11.338    48.242    0.24E-03    0.87E-03    0.12E-04
   1     11    11.338     2.381    0.18E-03    0.63E-03    0.86E-05
   2     10    11.338     2.237    0.15E-04    0.16E-04    0.66E-06
   2     10    11.338     2.457    0.37E-04    0.22E-04    0.97E-06
  PAW_PBE Ir_sv_GW 23Mar2010            :
 energy of atom  1       EATOM=-2883.8065
 kinetic energy error for atom=    0.0635 (will be added to EATOM!!)
  PAW_PBE O_GW_new 19Mar2012            :
 energy of atom  2       EATOM= -432.3788
 kinetic energy error for atom=    0.0278 (will be added to EATOM!!)
 
 
 POSCAR: Ir36 O78
  positions in direct lattice
  velocities in cartesian coordinates
 exchange correlation table for  LEXCH =        8
   RHO(1)=    0.500       N(1)  =     2000
   RHO(2)=  100.500       N(2)  =     4000
 
 POSCAR: Ir36 O78
  positions in direct lattice
  velocities in cartesian coordinates
 
 POSCAR: Ir36 O78
  positions in direct lattice
  velocities in cartesian coordinates
 


--------------------------------------------------------------------------------------------------------


 ion  position               nearest neighbor table
   1  0.167  0.750  0.158-  37 1.97  38 1.97  40 1.98  46 1.98  43 2.02  44 2.02   3 3.18   2 3.18

   2  0.500  0.750  0.158-  38 1.97  39 1.97  41 1.98  47 1.98  45 2.02  44 2.02   1 3.18   3 3.18

   3  0.833  0.750  0.158-  37 1.97  39 1.97  42 1.98  48 1.98  43 2.02  45 2.02   1 3.18   2 3.18

   4  0.000  0.250  0.156- 109 1.77  42 2.01  46 2.01  48 2.01  40 2.01  49 2.06   5 3.18   6 3.18

   5  0.333  0.250  0.156- 111 1.77  47 2.01  41 2.01  46 2.01  40 2.01  50 2.06   6 3.18   4 3.18

   6  0.667  0.250  0.156- 113 1.77  47 2.01  41 2.01  42 2.01  48 2.01  51 2.06   5 3.18   4 3.18

   7  0.167  0.250  0.215-  52 1.97  58 1.97  55 2.01  56 2.01  49 2.01  50 2.01   9 3.18   8 3.18

   8  0.500  0.250  0.215-  53 1.97  59 1.97  57 2.01  56 2.01  50 2.01  51 2.01   7 3.18   9 3.18

   9  0.833  0.250  0.215-  54 1.97  60 1.97  55 2.01  57 2.01  49 2.01  51 2.01   7 3.18   8 3.18

  10  0.000  0.750  0.215-  43 1.96  61 1.99  54 2.01  58 2.01  60 2.01  52 2.01  11 3.18  12 3.18

  11  0.333  0.750  0.215-  44 1.96  62 1.99  59 2.01  53 2.01  58 2.01  52 2.01  12 3.18  10 3.18

  12  0.667  0.750  0.215-  45 1.96  63 1.99  59 2.01  53 2.01  54 2.01  60 2.01  11 3.18  10 3.18

  13  0.167  0.750  0.271-  64 1.97  70 1.97  61 2.01  62 2.01  67 2.01  68 2.01  15 3.18  14 3.18

  14  0.500  0.750  0.271-  65 1.97  71 1.97  62 2.01  63 2.01  69 2.01  68 2.01  13 3.18  15 3.18

  15  0.833  0.750  0.271-  66 1.97  72 1.97  61 2.01  63 2.01  67 2.01  69 2.01  13 3.18  14 3.18

  16  0.000  0.250  0.271-  73 1.97  55 1.98  72 2.01  64 2.01  66 2.01  70 2.01  17 3.18  18 3.18

  17  0.333  0.250  0.271-  74 1.97  56 1.98  65 2.01  71 2.01  70 2.01  64 2.01  18 3.18  16 3.18

  18  0.667  0.250  0.271-  75 1.97  57 1.98  71 2.01  65 2.01  66 2.01  72 2.01  17 3.18  16 3.18

  19  0.167  0.250  0.328-  76 1.97  82 1.97  73 2.01  74 2.01  79 2.01  80 2.01  21 3.18  20 3.18

  20  0.500  0.250  0.328-  77 1.97  83 1.97  74 2.01  75 2.01  81 2.01  80 2.01  19 3.18  21 3.18

  21  0.833  0.250  0.328-  78 1.97  84 1.97  73 2.01  75 2.01  79 2.01  81 2.01  19 3.18  20 3.18

  22  0.000  0.750  0.328-  67 1.97  85 1.98  84 2.01  76 2.01  78 2.01  82 2.01  23 3.18  24 3.18

  23  0.333  0.750  0.328-  68 1.97  86 1.98  77 2.01  83 2.01  82 2.01  76 2.01  24 3.18  22 3.18

  24  0.667  0.750  0.328-  69 1.97  87 1.98  83 2.01  77 2.01  78 2.01  84 2.01  23 3.18  22 3.18

  25  0.167  0.750  0.385-  88 1.97  94 1.97  85 2.01  86 2.01  91 2.01  92 2.01  27 3.18  26 3.18

  26  0.500  0.750  0.385-  89 1.97  95 1.97  87 2.01  86 2.01  93 2.01  92 2.01  25 3.18  27 3.18

  27  0.833  0.750  0.385-  90 1.97  96 1.97  85 2.01  87 2.01  91 2.01  93 2.01  25 3.18  26 3.18

  28  0.000  0.250  0.385-  97 1.96  79 1.99  90 2.01  94 2.01  96 2.01  88 2.01  29 3.18  30 3.18

  29  0.333  0.250  0.385-  98 1.96  80 1.99  95 2.01  89 2.01  94 2.01  88 2.01  30 3.18  28 3.18

  30  0.667  0.250  0.385-  99 1.96  81 1.99  95 2.01  89 2.01  90 2.01  96 2.01  29 3.18  28 3.18

  31  0.167  0.250  0.441- 103 1.97 104 1.97 100 1.98 106 1.98  97 2.02  98 2.02  33 3.18  32 3.18

  32  0.500  0.250  0.441- 104 1.97 105 1.97 101 1.98 107 1.98  99 2.02  98 2.02  31 3.18  33 3.18

  33  0.833  0.250  0.441- 103 1.97 105 1.97 102 1.98 108 1.98  97 2.02  99 2.02  31 3.18  32 3.18

  34  0.000  0.750  0.443- 110 1.77 102 2.01 106 2.01 108 2.01 100 2.01  91 2.06  35 3.18  36 3.18

  35  0.333  0.750  0.443- 114 1.77 107 2.01 101 2.01 106 2.01 100 2.01  92 2.06  36 3.18  34 3.18

  36  0.667  0.750  0.443- 112 1.77 107 2.01 101 2.01 102 2.01 108 2.01  93 2.06  35 3.18  34 3.18

  37  0.000  0.750  0.137-   3 1.97   1 1.97
  38  0.333  0.750  0.137-   2 1.97   1 1.97
  39  0.667  0.750  0.137-   2 1.97   3 1.97
  40  0.167  0.059  0.159-   1 1.98   4 2.01   5 2.01
  41  0.500  0.059  0.159-   2 1.98   5 2.01   6 2.01
  42  0.833  0.059  0.159-   3 1.98   4 2.01   6 2.01
  43  0.000  0.750  0.180-  10 1.96   3 2.02   1 2.02
  44  0.333  0.750  0.180-  11 1.96   2 2.02   1 2.02
  45  0.667  0.750  0.180-  12 1.96   2 2.02   3 2.02
  46  0.167  0.441  0.159-   1 1.98   4 2.01   5 2.01
  47  0.500  0.441  0.159-   2 1.98   5 2.01   6 2.01
  48  0.833  0.441  0.159-   3 1.98   4 2.01   6 2.01
  49  0.000  0.250  0.193-   7 2.01   9 2.01   4 2.06
  50  0.333  0.250  0.193-   8 2.01   7 2.01   5 2.06
  51  0.667  0.250  0.193-   8 2.01   9 2.01   6 2.06
  52  0.167  0.558  0.215-   7 1.97  10 2.01  11 2.01
  53  0.500  0.558  0.215-   8 1.97  11 2.01  12 2.01
  54  0.833  0.558  0.215-   9 1.97  10 2.01  12 2.01
  55  0.000  0.250  0.236-  16 1.98   9 2.01   7 2.01
  56  0.333  0.250  0.236-  17 1.98   8 2.01   7 2.01
  57  0.667  0.250  0.236-  18 1.98   8 2.01   9 2.01
  58  0.167  0.942  0.215-   7 1.97  10 2.01  11 2.01
  59  0.500  0.942  0.215-   8 1.97  11 2.01  12 2.01
  60  0.833  0.942  0.215-   9 1.97  10 2.01  12 2.01
  61  0.000  0.750  0.250-  10 1.99  13 2.01  15 2.01
  62  0.333  0.750  0.250-  11 1.99  14 2.01  13 2.01
  63  0.667  0.750  0.250-  12 1.99  14 2.01  15 2.01
  64  0.167  0.058  0.271-  13 1.97  16 2.01  17 2.01
  65  0.500  0.058  0.271-  14 1.97  17 2.01  18 2.01
  66  0.833  0.058  0.271-  15 1.97  16 2.01  18 2.01
  67  0.000  0.750  0.293-  22 1.97  15 2.01  13 2.01
  68  0.333  0.750  0.293-  23 1.97  14 2.01  13 2.01
  69  0.667  0.750  0.293-  24 1.97  14 2.01  15 2.01
  70  0.167  0.442  0.271-  13 1.97  16 2.01  17 2.01
  71  0.500  0.442  0.271-  14 1.97  18 2.01  17 2.01
  72  0.833  0.442  0.271-  15 1.97  16 2.01  18 2.01
  73  0.000  0.250  0.306-  16 1.97  19 2.01  21 2.01
  74  0.333  0.250  0.306-  17 1.97  20 2.01  19 2.01
  75  0.667  0.250  0.306-  18 1.97  20 2.01  21 2.01
  76  0.167  0.558  0.328-  19 1.97  22 2.01  23 2.01
  77  0.500  0.558  0.328-  20 1.97  23 2.01  24 2.01
  78  0.833  0.558  0.328-  21 1.97  22 2.01  24 2.01
  79  0.000  0.250  0.350-  28 1.99  21 2.01  19 2.01
  80  0.333  0.250  0.350-  29 1.99  20 2.01  19 2.01
  81  0.667  0.250  0.350-  30 1.99  20 2.01  21 2.01
  82  0.167  0.942  0.328-  19 1.97  22 2.01  23 2.01
  83  0.500  0.942  0.328-  20 1.97  24 2.01  23 2.01
  84  0.833  0.942  0.328-  21 1.97  22 2.01  24 2.01
  85  0.000  0.750  0.363-  22 1.98  27 2.01  25 2.01
  86  0.333  0.750  0.363-  23 1.98  26 2.01  25 2.01
  87  0.667  0.750  0.363-  24 1.98  26 2.01  27 2.01
  88  0.167  0.058  0.385-  25 1.97  28 2.01  29 2.01
  89  0.500  0.058  0.385-  26 1.97  29 2.01  30 2.01
  90  0.833  0.058  0.385-  27 1.97  28 2.01  30 2.01
  91  0.000  0.750  0.407-  25 2.01  27 2.01  34 2.06
  92  0.333  0.750  0.407-  26 2.01  25 2.01  35 2.06
  93  0.667  0.750  0.407-  26 2.01  27 2.01  36 2.06
  94  0.167  0.442  0.385-  25 1.97  28 2.01  29 2.01
  95  0.500  0.442  0.385-  26 1.97  29 2.01  30 2.01
  96  0.833  0.442  0.385-  27 1.97  28 2.01  30 2.01
  97  0.000  0.250  0.419-  28 1.96  33 2.02  31 2.02
  98  0.333  0.250  0.419-  29 1.96  32 2.02  31 2.02
  99  0.667  0.250  0.419-  30 1.96  32 2.02  33 2.02
 100  0.167  0.559  0.441-  31 1.98  34 2.01  35 2.01
 101  0.500  0.559  0.441-  32 1.98  35 2.01  36 2.01
 102  0.833  0.559  0.441-  33 1.98  34 2.01  36 2.01
 103  0.000  0.250  0.462-  31 1.97  33 1.97
 104  0.333  0.250  0.462-  32 1.97  31 1.97
 105  0.667  0.250  0.462-  32 1.97  33 1.97
 106  0.167  0.941  0.441-  31 1.98  34 2.01  35 2.01
 107  0.500  0.941  0.441-  32 1.98  35 2.01  36 2.01
 108  0.833  0.941  0.441-  33 1.98  34 2.01  36 2.01
 109  0.000  0.250  0.125-   4 1.77
 110  0.000  0.750  0.474-  34 1.77
 111  0.333  0.250  0.125-   5 1.77
 112  0.667  0.750  0.474-  36 1.77
 113  0.667  0.250  0.125-   6 1.77
 114  0.333  0.750  0.474-  35 1.77
 
  LATTYP: Found a simple orthorhombic cell.
 ALAT       =     6.4022918039
 B/A-ratio  =     1.4889259653
 C/A-ratio  =     8.8429110168
  
  Lattice vectors:
  
 A1 = (  -0.0000000000,  -6.4022918039,   0.0000000000)
 A2 = (   9.5325385041,   0.0000000000,   0.0000000000)
 A3 = (   0.0000000000,   0.0000000000,  56.6148967251)


Analysis of symmetry for initial positions (statically):
=====================================================================
 Subroutine PRICEL returns following result:
 
  LATTYP: Found a simple orthorhombic cell.
 ALAT       =     3.1775128347
 B/A-ratio  =     2.0148751986
 C/A-ratio  =    17.8173620912
  
  Lattice vectors:
  
 A1 = (   3.1775128347,   0.0000000000,   0.0000000000)
 A2 = (   0.0000000000,   6.4022918039,   0.0000000000)
 A3 = (   0.0000000000,   0.0000000000,  56.6148967251)
 
   3 primitive cells build up your supercell.
 

 Routine SETGRP: Setting up the symmetry group for a 
 simple orthorhombic supercell.


 Subroutine GETGRP returns: Found  8 space group operations
 (whereof  2 operations were pure point group operations)
 out of a pool of  8 trial point group operations.


The static configuration has the point symmetry C_1h.
 The point group associated with its full space group is D_2h.


Analysis of symmetry for dynamics (positions and initial velocities):
=====================================================================
 Subroutine PRICEL returns following result:
 
  LATTYP: Found a simple orthorhombic cell.
 ALAT       =     3.1775128347
 B/A-ratio  =     2.0148751986
 C/A-ratio  =    17.8173620912
  
  Lattice vectors:
  
 A1 = (   3.1775128347,   0.0000000000,   0.0000000000)
 A2 = (   0.0000000000,   6.4022918039,   0.0000000000)
 A3 = (   0.0000000000,   0.0000000000,  56.6148967251)
 
   3 primitive cells build up your supercell.
 

 Routine SETGRP: Setting up the symmetry group for a 
 simple orthorhombic supercell.


 Subroutine GETGRP returns: Found  8 space group operations
 (whereof  2 operations were pure point group operations)
 out of a pool of  8 trial point group operations.


The dynamic configuration has the point symmetry C_1h.
 The point group associated with its full space group is D_2h.


Analysis of constrained symmetry for selective dynamics:
=====================================================================
 Subroutine PRICEL returns following result:
 
  LATTYP: Found a simple orthorhombic cell.
 ALAT       =     3.1775128347
 B/A-ratio  =     2.0148751986
 C/A-ratio  =    17.8173620912
  
  Lattice vectors:
  
 A1 = (   3.1775128347,   0.0000000000,   0.0000000000)
 A2 = (   0.0000000000,   6.4022918039,   0.0000000000)
 A3 = (   0.0000000000,   0.0000000000,  56.6148967251)
 
   3 primitive cells build up your supercell.
 

 Routine SETGRP: Setting up the symmetry group for a 
 simple orthorhombic supercell.


 Subroutine GETGRP returns: Found  8 space group operations
 (whereof  2 operations were pure point group operations)
 out of a pool of  8 trial point group operations.


The constrained configuration has the point symmetry C_1h.
 The point group associated with its full space group is D_2h.


Analysis of structural, dynamic, and magnetic symmetry:
=====================================================================
 Subroutine PRICEL returns following result:
 
  LATTYP: Found a simple orthorhombic cell.
 ALAT       =     3.1775128347
 B/A-ratio  =     2.0148751986
 C/A-ratio  =    17.8173620912
  
  Lattice vectors:
  
 A1 = (   3.1775128347,   0.0000000000,   0.0000000000)
 A2 = (   0.0000000000,   6.4022918039,   0.0000000000)
 A3 = (   0.0000000000,   0.0000000000,  56.6148967251)
 
   3 primitive cells build up your supercell.
 

 Routine SETGRP: Setting up the symmetry group for a 
 simple orthorhombic supercell.


 Subroutine GETGRP returns: Found  8 space group operations
 (whereof  2 operations were pure point group operations)
 out of a pool of  8 trial point group operations.


The overall configuration has the point symmetry C_1h.
 The point group associated with its full space group is D_2h.


 Subroutine INISYM returns: Found  8 space group operations
 (whereof  2 operations are pure point group operations),
 and found     3 'primitive' translations


----------------------------------------------------------------------------------------

                                     Primitive cell                                     

  volume of cell :    1151.7375

  direct lattice vectors                    reciprocal lattice vectors
     3.177512835  0.000000000  0.000000000     0.314711553 -0.000000000  0.000000000
     0.000000000  6.402291804  0.000000000     0.000000000  0.156194068  0.000000000
     0.000000000  0.000000000 56.614896725    -0.000000000 -0.000000000  0.017663196

  length of vectors
     3.177512835  6.402291804 56.614896725     0.314711553  0.156194068  0.017663196

  position of ions in fractional coordinates (direct lattice)
     0.500000000  0.750000000  0.158008999
     0.000000000  0.250000000  0.156398042
     0.500000000  0.250000000  0.214665407
     0.000000000  0.750000000  0.214630193
     0.500000000  0.750000000  0.271403839
     0.000000000  0.250000000  0.271403839
     0.500000000  0.250000000  0.327946306
     0.000000000  0.750000000  0.327946306
     0.500000000  0.750000000  0.384684738
     0.000000000  0.250000000  0.384719952
     0.500000000  0.250000000  0.441341146
     0.000000000  0.750000000  0.442952103
     0.000000000  0.750000000  0.137436330
     0.500000000  0.059111257  0.158703904
     0.000000000  0.750000000  0.179933077
     0.500000000  0.440888743  0.158703904
     0.000000000  0.250000000  0.192836308
     0.500000000  0.557959674  0.214741536
     0.000000000  0.250000000  0.236439661
     0.500000000  0.942040326  0.214741536
     0.000000000  0.750000000  0.249724761
     0.500000000  0.058293842  0.271403839
     0.000000000  0.750000000  0.293082917
     0.500000000  0.441706158  0.271403839
     0.000000000  0.250000000  0.306267228
     0.500000000  0.558293842  0.327946306
     0.000000000  0.250000000  0.349625384
     0.500000000  0.941706158  0.327946306
     0.000000000  0.750000000  0.362910484
     0.500000000  0.057959674  0.384608609
     0.000000000  0.750000000  0.406513837
     0.500000000  0.442040326  0.384608609
     0.000000000  0.250000000  0.419417068
     0.500000000  0.559111257  0.440646241
     0.000000000  0.250000000  0.461913815
     0.500000000  0.940888743  0.440646241
     0.000000000  0.250000000  0.125076334
     0.000000000  0.750000000  0.474272200

  ion indices of the primitive-cell ions
   primitive index   ion index
                 1           1
                 2           4
                 3           7
                 4          10
                 5          13
                 6          16
                 7          19
                 8          22
                 9          25
                10          28
                11          31
                12          34
                13          37
                14          40
                15          43
                16          46
                17          49
                18          52
                19          55
                20          58
                21          61
                22          64
                23          67
                24          70
                25          73
                26          76
                27          79
                28          82
                29          85
                30          88
                31          91
                32          94
                33          97
                34         100
                35         103
                36         106
                37         109
                38         110

----------------------------------------------------------------------------------------

 
 
 KPOINTS: Automatic mesh                          

Automatic generation of k-mesh.
 Grid dimensions read from file:
 generate k-points for:    6    8    1

 Generating k-lattice:

  Cartesian coordinates                     Fractional coordinates (reciprocal lattice)
     0.017483975 -0.000000000  0.000000000     0.166666667  0.000000000  0.000000000
     0.000000000  0.019524258  0.000000000     0.000000000  0.125000000  0.000000000
    -0.000000000 -0.000000000  0.017663196     0.000000000  0.000000000  1.000000000

  Length of vectors
     0.017483975  0.019524258  0.017663196

  Shift w.r.t. Gamma in fractional coordinates (k-lattice)
     0.000000000  0.000000000  0.000000000

 
 Subroutine IBZKPT returns following result:
 ===========================================
 
 Found     20 irreducible k-points:
 
 Following reciprocal coordinates:
            Coordinates               Weight
  0.000000  0.000000  0.000000      1.000000
  0.166667 -0.000000  0.000000      2.000000
  0.333333 -0.000000  0.000000      2.000000
  0.500000 -0.000000  0.000000      1.000000
  0.000000  0.125000  0.000000      2.000000
  0.166667  0.125000  0.000000      4.000000
  0.333333  0.125000  0.000000      4.000000
  0.500000  0.125000  0.000000      2.000000
  0.000000  0.250000  0.000000      2.000000
  0.166667  0.250000  0.000000      4.000000
  0.333333  0.250000  0.000000      4.000000
  0.500000  0.250000  0.000000      2.000000
  0.000000  0.375000  0.000000      2.000000
  0.166667  0.375000  0.000000      4.000000
  0.333333  0.375000  0.000000      4.000000
  0.500000  0.375000  0.000000      2.000000
  0.000000  0.500000  0.000000      1.000000
  0.166667  0.500000  0.000000      2.000000
  0.333333  0.500000  0.000000      2.000000
  0.500000  0.500000  0.000000      1.000000
 
 Following cartesian coordinates:
            Coordinates               Weight
  0.000000  0.000000  0.000000      1.000000
  0.017484 -0.000000  0.000000      2.000000
  0.034968 -0.000000  0.000000      2.000000
  0.052452 -0.000000  0.000000      1.000000
  0.000000  0.019524  0.000000      2.000000
  0.017484  0.019524  0.000000      4.000000
  0.034968  0.019524  0.000000      4.000000
  0.052452  0.019524  0.000000      2.000000
  0.000000  0.039049  0.000000      2.000000
  0.017484  0.039049  0.000000      4.000000
  0.034968  0.039049  0.000000      4.000000
  0.052452  0.039049  0.000000      2.000000
  0.000000  0.058573  0.000000      2.000000
  0.017484  0.058573  0.000000      4.000000
  0.034968  0.058573  0.000000      4.000000
  0.052452  0.058573  0.000000      2.000000
  0.000000  0.078097  0.000000      1.000000
  0.017484  0.078097  0.000000      2.000000
  0.034968  0.078097  0.000000      2.000000
  0.052452  0.078097  0.000000      1.000000
 


--------------------------------------------------------------------------------------------------------




 Dimension of arrays:
   k-points           NKPTS =     20   k-points in BZ     NKDIM =     20   number of bands    NBANDS=    720
   number of dos      NEDOS =   6001   number of ions     NIONS =    114
   non local maximal  LDIM  =      8   non local SUM 2l+1 LMDIM =     26
   total plane-waves  NPLWV = ******
   max r-space proj   IRMAX =  27620   max aug-charges    IRDMAX= 386720
   dimension x,y,z NGX =   108 NGY =   72 NGZ =  640
   dimension x,y,z NGXF=   216 NGYF=  144 NGZF= 1280
   support grid    NGXF=   432 NGYF=  288 NGZF= 2560
   ions per type =              36  78
   NGX,Y,Z   is equivalent  to a cutoff of  18.84, 18.70, 18.79 a.u.
   NGXF,Y,Z  is equivalent  to a cutoff of  37.67, 37.39, 37.59 a.u.

 Based on PREC, I would recommend the following setting:
   dimension x,y,z NGX =    70 NGY =   48 NGZ =  420

 SYSTEM =  IrO2-110	                               
 POSCAR =  Ir36 O78                                

 Startparameter for this run:
   NWRITE =      1    write-flag & timer
   PREC   = accura    normal or accurate (medium, high low for compatibility)
   ISTART =      0    job   : 0-new  1-cont  2-samecut
   ICHARG =      2    charge: 1-file 2-atom 10-const
   ISPIN  =      2    spin polarized calculation?
   LNONCOLLINEAR =      F non collinear calculations
   LSORBIT =      F    spin-orbit coupling
   INIWAV =      1    electr: 0-lowe 1-rand  2-diag
   LASPH  =      T    aspherical Exc in radial PAW
 Electronic Relaxation 1
   ENCUT  =  500.0 eV  36.75 Ry    6.06 a.u.  17.38 11.67103.22*2*pi/ulx,y,z
   ENINI  =  500.0     initial cutoff
   ENAUG  = 1139.6 eV  augmentation charge cutoff
   NELM   =    300;   NELMIN=  6; NELMDL= -8     # of ELM steps 
   EDIFF  = 0.1E-04   stopping-criterion for ELM
   LREAL  =      T    real-space projection
   NLSPLINE    = F    spline interpolate recip. space projectors
   LCOMPAT=      F    compatible to vasp.4.4
   GGA_COMPAT  = T    GGA compatible to vasp.4.4-vasp.4.6
   LMAXPAW     = -100 max onsite density
   LMAXMIX     =    2 max onsite mixed and CHGCAR
   VOSKOWN=      0    Vosko Wilk Nusair interpolation
   ROPT   =   -0.00025  -0.00025
 Ionic relaxation
   EDIFFG = -.3E-01   stopping-criterion for IOM
   NSW    =      0    number of steps for IOM
   NBLOCK =      1;   KBLOCK =      1    inner block; outer block 
   IBRION =     -1    ionic relax: 0-MD 1-quasi-New 2-CG
   NFREE  =      1    steps in history (QN), initial steepest desc. (CG)
   ISIF   =      0    stress and relaxation
   IWAVPR =     10    prediction:  0-non 1-charg 2-wave 3-comb
   ISYM   =      2    0-nonsym 1-usesym 2-fastsym
   LCORR  =      T    Harris-Foulkes like correction to forces

   POTIM  = 0.5000    time-step for ionic-motion
   TEIN   =    0.0    initial temperature
   TEBEG  =    0.0;   TEEND  =   0.0 temperature during run
   SMASS  =  -3.00    Nose mass-parameter (am)
   estimated Nose-frequenzy (Omega)   =  0.10E-29 period in steps = 0.13E+47 mass=  -0.208E-26a.u.
   SCALEE = 1.0000    scale energy and forces
   NPACO  =    256;   APACO  = 10.0  distance and # of slots for P.C.
   PSTRESS=    0.0 pullay stress

  Mass of Ions in am
   POMASS = 192.22 16.00
  Ionic Valenz
   ZVAL   =  17.00  6.00
  Atomic Wigner-Seitz radii
   RWIGS  =  -1.00 -1.00
  virtual crystal weights 
   VCA    =   1.00  1.00
   NELECT =    1080.0000    total number of electrons
   NUPDOWN=      -1.0000    fix difference up-down

 DOS related values:
   EMIN   =  10.00;   EMAX   =-10.00  energy-range for DOS
   EFERMI =   0.00
   ISMEAR =     0;   SIGMA  =   0.05  broadening in eV -4-tet -1-fermi 0-gaus

 Electronic relaxation 2 (details)
   IALGO  =     38    algorithm
   LDIAG  =      T    sub-space diagonalisation (order eigenvalues)
   LSUBROT=      F    optimize rotation matrix (better conditioning)
   TURBO    =      0    0=normal 1=particle mesh
   IRESTART =      0    0=no restart 2=restart with 2 vectors
   NREBOOT  =      0    no. of reboots
   NMIN     =      0    reboot dimension
   EREF     =   0.00    reference energy to select bands
   IMIX   =      4    mixing-type and parameters
     AMIX     =   0.40;   BMIX     =  1.00
     AMIX_MAG =   1.60;   BMIX_MAG =  1.00
     AMIN     =   0.01
     WC   =   100.;   INIMIX=   1;  MIXPRE=   1;  MAXMIX= -45

 Intra band minimization:
   WEIMIN = 0.0000     energy-eigenvalue tresh-hold
   EBREAK =  0.35E-08  absolut break condition
   DEPER  =   0.30     relativ break condition  

   TIME   =   0.40     timestep for ELM

  volume/ion in A,a.u.               =      30.31       204.53
  Fermi-wavevector in a.u.,A,eV,Ry     =   1.111027  2.099536 16.794764  1.234380
  Thomas-Fermi vector in A             =   2.247585
 
 Write flags
   LWAVE        =      F    write WAVECAR
   LDOWNSAMPLE  =      F    k-point downsampling of WAVECAR
   LCHARG       =      T    write CHGCAR
   LVTOT        =      F    write LOCPOT, total local potential
   LVHAR        =      F    write LOCPOT, Hartree potential only
   LELF         =      F    write electronic localiz. function (ELF)
   LORBIT       =     10    0 simple, 1 ext, 2 COOP (PROOUT), +10 PAW based schemes


 Dipole corrections
   LMONO  =      F    monopole corrections only (constant potential shift)
   LDIPOL =      F    correct potential (dipole corrections)
   IDIPOL =      0    1-x, 2-y, 3-z, 4-all directions 
   EPSILON=  1.0000000 bulk dielectric constant

 Exchange correlation treatment:
   GGA     =    --    GGA type
   LEXCH   =     8    internal setting for exchange type
   LIBXC   =     F    Libxc                    
   VOSKOWN =     0    Vosko Wilk Nusair interpolation
   LHFCALC =     F    Hartree Fock is set to
   LHFONE  =     F    Hartree Fock one center treatment
   AEXX    =    0.0000 exact exchange contribution

 Linear response parameters
   LEPSILON=     F    determine dielectric tensor
   LRPA    =     F    only Hartree local field effects (RPA)
   LNABLA  =     F    use nabla operator in PAW spheres
   LVEL    =     F    velocity operator in full k-point grid
   CSHIFT  =0.1000    complex shift for real part using Kramers Kronig
   OMEGAMAX=  -1.0    maximum frequency
   DEG_THRESHOLD= 0.2000000E-02 threshold for treating states as degnerate
   RTIME   =   -0.100 relaxation time in fs
  (WPLASMAI=    0.000 imaginary part of plasma frequency in eV, 0.658/RTIME)
   DFIELD  = 0.0000000 0.0000000 0.0000000 field for delta impulse in time
 
  Optional k-point grid parameters
   LKPOINTS_OPT  =     F    use optional k-point grid
   KPOINTS_OPT_MODE=     1    mode for optional k-point grid
 
 Orbital magnetization related:
   ORBITALMAG=     F  switch on orbital magnetization
   LCHIMAG   =     F  perturbation theory with respect to B field
   DQ        =  0.001000  dq finite difference perturbation B field
   LLRAUG    =     F  two centre corrections for induced B field



--------------------------------------------------------------------------------------------------------


 Static calculation
 charge density and potential will be updated during run
 spin polarized calculation
 Variant of blocked Davidson
 Davidson routine will perform the subspace rotation
 perform sub-space diagonalisation
    after iterative eigenvector-optimisation
 modified Broyden-mixing scheme, WC =      100.0
 initial mixing is a Kerker type mixing with AMIX =  0.4000 and BMIX =      1.0000
 Hartree-type preconditioning will be used
 using additional bands          180
 real space projection scheme for non local part
 use partial core corrections
 calculate Harris-corrections to forces 
   (improved forces if not selfconsistent)
 use gradient corrections 
 use of overlap-Matrix (Vanderbilt PP)
 Gauss-broadening in eV      SIGMA  =   0.05


--------------------------------------------------------------------------------------------------------


  energy-cutoff  :      500.00
  volume of cell :     3455.21
      direct lattice vectors                 reciprocal lattice vectors
     9.532538504  0.000000000  0.000000000     0.104903851 -0.000000000  0.000000000
     0.000000000  6.402291804  0.000000000     0.000000000  0.156194068  0.000000000
     0.000000000  0.000000000 56.614896725    -0.000000000 -0.000000000  0.017663196

  length of vectors
     9.532538504  6.402291804 56.614896725     0.104903851  0.156194068  0.017663196


 
 k-points in units of 2pi/SCALE and weight: Automatic mesh                          
   0.00000000  0.00000000  0.00000000       0.021
   0.01748398 -0.00000000  0.00000000       0.042
   0.03496795 -0.00000000  0.00000000       0.042
   0.05245193 -0.00000000  0.00000000       0.021
   0.00000000  0.01952426  0.00000000       0.042
   0.01748398  0.01952426  0.00000000       0.083
   0.03496795  0.01952426  0.00000000       0.083
   0.05245193  0.01952426  0.00000000       0.042
   0.00000000  0.03904852  0.00000000       0.042
   0.01748398  0.03904852  0.00000000       0.083
   0.03496795  0.03904852  0.00000000       0.083
   0.05245193  0.03904852  0.00000000       0.042
   0.00000000  0.05857278  0.00000000       0.042
   0.01748398  0.05857278  0.00000000       0.083
   0.03496795  0.05857278  0.00000000       0.083
   0.05245193  0.05857278  0.00000000       0.042
   0.00000000  0.07809703  0.00000000       0.021
   0.01748398  0.07809703  0.00000000       0.042
   0.03496795  0.07809703  0.00000000       0.042
   0.05245193  0.07809703  0.00000000       0.021
 
 k-points in reciprocal lattice and weights: Automatic mesh                          
   0.00000000  0.00000000  0.00000000       0.021
   0.16666667 -0.00000000  0.00000000       0.042
   0.33333333 -0.00000000  0.00000000       0.042
   0.50000000 -0.00000000  0.00000000       0.021
   0.00000000  0.12500000  0.00000000       0.042
   0.16666667  0.12500000  0.00000000       0.083
   0.33333333  0.12500000  0.00000000       0.083
   0.50000000  0.12500000  0.00000000       0.042
   0.00000000  0.25000000  0.00000000       0.042
   0.16666667  0.25000000  0.00000000       0.083
   0.33333333  0.25000000  0.00000000       0.083
   0.50000000  0.25000000  0.00000000       0.042
   0.00000000  0.37500000  0.00000000       0.042
   0.16666667  0.37500000  0.00000000       0.083
   0.33333333  0.37500000  0.00000000       0.083
   0.50000000  0.37500000  0.00000000       0.042
   0.00000000  0.50000000  0.00000000       0.021
   0.16666667  0.50000000  0.00000000       0.042
   0.33333333  0.50000000  0.00000000       0.042
   0.50000000  0.50000000  0.00000000       0.021
 
 position of ions in fractional coordinates (direct lattice) 
   0.16666667  0.75000000  0.15800900
   0.50000000  0.75000000  0.15800900
   0.83333333  0.75000000  0.15800900
   0.00000000  0.25000000  0.15639804
   0.33333333  0.25000000  0.15639804
   0.66666667  0.25000000  0.15639804
   0.16666667  0.25000000  0.21466541
   0.50000000  0.25000000  0.21466541
   0.83333333  0.25000000  0.21466541
   0.00000000  0.75000000  0.21463019
   0.33333333  0.75000000  0.21463019
   0.66666667  0.75000000  0.21463019
   0.16666667  0.75000000  0.27140384
   0.50000000  0.75000000  0.27140384
   0.83333333  0.75000000  0.27140384
   0.00000000  0.25000000  0.27140384
   0.33333333  0.25000000  0.27140384
   0.66666667  0.25000000  0.27140384
   0.16666667  0.25000000  0.32794631
   0.50000000  0.25000000  0.32794631
   0.83333333  0.25000000  0.32794631
   0.00000000  0.75000000  0.32794631
   0.33333333  0.75000000  0.32794631
   0.66666667  0.75000000  0.32794631
   0.16666667  0.75000000  0.38468474
   0.50000000  0.75000000  0.38468474
   0.83333333  0.75000000  0.38468474
   0.00000000  0.25000000  0.38471995
   0.33333333  0.25000000  0.38471995
   0.66666667  0.25000000  0.38471995
   0.16666667  0.25000000  0.44134115
   0.50000000  0.25000000  0.44134115
   0.83333333  0.25000000  0.44134115
   0.00000000  0.75000000  0.44295210
   0.33333333  0.75000000  0.44295210
   0.66666667  0.75000000  0.44295210
   0.00000000  0.75000000  0.13743633
   0.33333333  0.75000000  0.13743633
   0.66666667  0.75000000  0.13743633
   0.16666667  0.05911126  0.15870390
   0.50000000  0.05911126  0.15870390
   0.83333333  0.05911126  0.15870390
   0.00000000  0.75000000  0.17993308
   0.33333333  0.75000000  0.17993308
   0.66666667  0.75000000  0.17993308
   0.16666667  0.44088874  0.15870390
   0.50000000  0.44088874  0.15870390
   0.83333333  0.44088874  0.15870390
   0.00000000  0.25000000  0.19283631
   0.33333333  0.25000000  0.19283631
   0.66666667  0.25000000  0.19283631
   0.16666667  0.55795967  0.21474154
   0.50000000  0.55795967  0.21474154
   0.83333333  0.55795967  0.21474154
   0.00000000  0.25000000  0.23643966
   0.33333333  0.25000000  0.23643966
   0.66666667  0.25000000  0.23643966
   0.16666667  0.94204033  0.21474154
   0.50000000  0.94204033  0.21474154
   0.83333333  0.94204033  0.21474154
   0.00000000  0.75000000  0.24972476
   0.33333333  0.75000000  0.24972476
   0.66666667  0.75000000  0.24972476
   0.16666667  0.05829384  0.27140384
   0.50000000  0.05829384  0.27140384
   0.83333333  0.05829384  0.27140384
   0.00000000  0.75000000  0.29308292
   0.33333333  0.75000000  0.29308292
   0.66666667  0.75000000  0.29308292
   0.16666667  0.44170616  0.27140384
   0.50000000  0.44170616  0.27140384
   0.83333333  0.44170616  0.27140384
   0.00000000  0.25000000  0.30626723
   0.33333333  0.25000000  0.30626723
   0.66666667  0.25000000  0.30626723
   0.16666667  0.55829384  0.32794631
   0.50000000  0.55829384  0.32794631
   0.83333333  0.55829384  0.32794631
   0.00000000  0.25000000  0.34962538
   0.33333333  0.25000000  0.34962538
   0.66666667  0.25000000  0.34962538
   0.16666667  0.94170616  0.32794631
   0.50000000  0.94170616  0.32794631
   0.83333333  0.94170616  0.32794631
   0.00000000  0.75000000  0.36291048
   0.33333333  0.75000000  0.36291048
   0.66666667  0.75000000  0.36291048
   0.16666667  0.05795967  0.38460861
   0.50000000  0.05795967  0.38460861
   0.83333333  0.05795967  0.38460861
   0.00000000  0.75000000  0.40651384
   0.33333333  0.75000000  0.40651384
   0.66666667  0.75000000  0.40651384
   0.16666667  0.44204033  0.38460861
   0.50000000  0.44204033  0.38460861
   0.83333333  0.44204033  0.38460861
   0.00000000  0.25000000  0.41941707
   0.33333333  0.25000000  0.41941707
   0.66666667  0.25000000  0.41941707
   0.16666667  0.55911126  0.44064624
   0.50000000  0.55911126  0.44064624
   0.83333333  0.55911126  0.44064624
   0.00000000  0.25000000  0.46191381
   0.33333333  0.25000000  0.46191381
   0.66666667  0.25000000  0.46191381
   0.16666667  0.94088874  0.44064624
   0.50000000  0.94088874  0.44064624
   0.83333333  0.94088874  0.44064624
   0.00000000  0.25000000  0.12507633
   0.00000000  0.75000000  0.47427220
   0.33333333  0.25000000  0.12507633
   0.66666667  0.75000000  0.47427220
   0.66666667  0.25000000  0.12507633
   0.33333333  0.75000000  0.47427220
 
 position of ions in cartesian coordinates  (Angst):
   1.58875642  4.80171885  8.94566318
   4.76626925  4.80171885  8.94566318
   7.94378209  4.80171885  8.94566318
   0.00000000  1.60057295  8.85445901
   3.17751283  1.60057295  8.85445901
   6.35502567  1.60057295  8.85445901
   1.58875642  1.60057295 12.15325985
   4.76626925  1.60057295 12.15325985
   7.94378209  1.60057295 12.15325985
   0.00000000  4.80171885 12.15126621
   3.17751283  4.80171885 12.15126621
   6.35502567  4.80171885 12.15126621
   1.58875642  4.80171885 15.36550033
   4.76626925  4.80171885 15.36550033
   7.94378209  4.80171885 15.36550033
   0.00000000  1.60057295 15.36550033
   3.17751283  1.60057295 15.36550033
   6.35502567  1.60057295 15.36550033
   1.58875642  1.60057295 18.56664623
   4.76626925  1.60057295 18.56664623
   7.94378209  1.60057295 18.56664623
   0.00000000  4.80171885 18.56664623
   3.17751283  4.80171885 18.56664623
   6.35502567  4.80171885 18.56664623
   1.58875642  4.80171885 21.77888671
   4.76626925  4.80171885 21.77888671
   7.94378209  4.80171885 21.77888671
   0.00000000  1.60057295 21.78088035
   3.17751283  1.60057295 21.78088035
   6.35502567  1.60057295 21.78088035
   1.58875642  1.60057295 24.98648338
   4.76626925  1.60057295 24.98648338
   7.94378209  1.60057295 24.98648338
   0.00000000  4.80171885 25.07768756
   3.17751283  4.80171885 25.07768756
   6.35502567  4.80171885 25.07768756
   0.00000000  4.80171885  7.78094363
   3.17751283  4.80171885  7.78094363
   6.35502567  4.80171885  7.78094363
   1.58875642  0.37844752  8.98500514
   4.76626925  0.37844752  8.98500514
   7.94378209  0.37844752  8.98500514
   0.00000000  4.80171885 10.18689258
   3.17751283  4.80171885 10.18689258
   6.35502567  4.80171885 10.18689258
   1.58875642  2.82269839  8.98500514
   4.76626925  2.82269839  8.98500514
   7.94378209  2.82269839  8.98500514
   0.00000000  1.60057295 10.91740764
   3.17751283  1.60057295 10.91740764
   6.35502567  1.60057295 10.91740764
   1.58875642  3.57222065 12.15756986
   4.76626925  3.57222065 12.15756986
   7.94378209  3.57222065 12.15756986
   0.00000000  1.60057295 13.38600698
   3.17751283  1.60057295 13.38600698
   6.35502567  1.60057295 13.38600698
   1.58875642  6.03121706 12.15756986
   4.76626925  6.03121706 12.15756986
   7.94378209  6.03121706 12.15756986
   0.00000000  4.80171885 14.13814156
   3.17751283  4.80171885 14.13814156
   6.35502567  4.80171885 14.13814156
   1.58875642  0.37321418 15.36550033
   4.76626925  0.37321418 15.36550033
   7.94378209  0.37321418 15.36550033
   0.00000000  4.80171885 16.59285910
   3.17751283  4.80171885 16.59285910
   6.35502567  4.80171885 16.59285910
   1.58875642  2.82793172 15.36550033
   4.76626925  2.82793172 15.36550033
   7.94378209  2.82793172 15.36550033
   0.00000000  1.60057295 17.33928746
   3.17751283  1.60057295 17.33928746
   6.35502567  1.60057295 17.33928746
   1.58875642  3.57436009 18.56664623
   4.76626925  3.57436009 18.56664623
   7.94378209  3.57436009 18.56664623
   0.00000000  1.60057295 19.79400500
   3.17751283  1.60057295 19.79400500
   6.35502567  1.60057295 19.79400500
   1.58875642  6.02907762 18.56664623
   4.76626925  6.02907762 18.56664623
   7.94378209  6.02907762 18.56664623
   0.00000000  4.80171885 20.54613958
   3.17751283  4.80171885 20.54613958
   6.35502567  4.80171885 20.54613958
   1.58875642  0.37107475 21.77457671
   4.76626925  0.37107475 21.77457671
   7.94378209  0.37107475 21.77457671
   0.00000000  4.80171885 23.01473892
   3.17751283  4.80171885 23.01473892
   6.35502567  4.80171885 23.01473892
   1.58875642  2.83007115 21.77457671
   4.76626925  2.83007115 21.77457671
   7.94378209  2.83007115 21.77457671
   0.00000000  1.60057295 23.74525398
   3.17751283  1.60057295 23.74525398
   6.35502567  1.60057295 23.74525398
   1.58875642  3.57959342 24.94714142
   4.76626925  3.57959342 24.94714142
   7.94378209  3.57959342 24.94714142
   0.00000000  1.60057295 26.15120293
   3.17751283  1.60057295 26.15120293
   6.35502567  1.60057295 26.15120293
   1.58875642  6.02384429 24.94714142
   4.76626925  6.02384429 24.94714142
   7.94378209  6.02384429 24.94714142
   0.00000000  1.60057295  7.08118376
   0.00000000  4.80171885 26.85087161
   3.17751283  1.60057295  7.08118376
   6.35502567  4.80171885 26.85087161
   6.35502567  1.60057295  7.08118376
   3.17751283  4.80171885 26.85087161
 


--------------------------------------------------------------------------------------------------------


 k-point   1 :   0.0000 0.0000 0.0000  plane waves:   87751
 k-point   2 :   0.1667-0.0000 0.0000  plane waves:   87701
 k-point   3 :   0.3333-0.0000 0.0000  plane waves:   87761
 k-point   4 :   0.5000-0.0000 0.0000  plane waves:   87898
 k-point   5 :   0.0000 0.1250 0.0000  plane waves:   87793
 k-point   6 :   0.1667 0.1250 0.0000  plane waves:   87757
 k-point   7 :   0.3333 0.1250 0.0000  plane waves:   87759
 k-point   8 :   0.5000 0.1250 0.0000  plane waves:   87746
 k-point   9 :   0.0000 0.2500 0.0000  plane waves:   87795
 k-point  10 :   0.1667 0.2500 0.0000  plane waves:   87724
 k-point  11 :   0.3333 0.2500 0.0000  plane waves:   87673
 k-point  12 :   0.5000 0.2500 0.0000  plane waves:   87658
 k-point  13 :   0.0000 0.3750 0.0000  plane waves:   87722
 k-point  14 :   0.1667 0.3750 0.0000  plane waves:   87696
 k-point  15 :   0.3333 0.3750 0.0000  plane waves:   87665
 k-point  16 :   0.5000 0.3750 0.0000  plane waves:   87624
 k-point  17 :   0.0000 0.5000 0.0000  plane waves:   87712
 k-point  18 :   0.1667 0.5000 0.0000  plane waves:   87774
 k-point  19 :   0.3333 0.5000 0.0000  plane waves:   87648
 k-point  20 :   0.5000 0.5000 0.0000  plane waves:   87676

 maximum and minimum number of plane-waves per node :     17658    17472

 maximum number of plane-waves:     87898
 maximum index in each direction: 
   IXMAX=   17   IYMAX=   11   IZMAX=  103
   IXMIN=  -17   IYMIN=  -12   IZMIN= -103


 real space projection operators:
  total allocation   :     522893.11 KBytes
  max/ min on nodes  :     106204.48     102150.59


 parallel 3D FFT for wavefunctions:
    minimum data exchange during FFTs selected (reduces bandwidth)
 parallel 3D FFT for charge:
    minimum data exchange during FFTs selected (reduces bandwidth)


 total amount of memory used by VASP MPI-rank0   970278. kBytes
=======================================================================

   base      :      30000. kBytes
   nonlr-proj:     184368. kBytes
   fftplans  :     107811. kBytes
   grid      :     125443. kBytes
   one-center:       1492. kBytes
   wavefun   :     521164. kBytes
 
     INWAV:  cpu time      0.0000: real time      0.0001
 Broyden mixing: mesh for mixing (old mesh)
   NGX = 35   NGY = 23   NGZ =207
  (NGX  =216   NGY  =144   NGZ  =***)
  gives a total of 166635 points

 initial charge density was supplied:
 charge density of overlapping atoms calculated
 number of electron    1080.0000000 magnetization     114.0000000
 keeping initial charge density in first step


--------------------------------------------------------------------------------------------------------


 Maximum index for non-local projection operator         5787
 Maximum index for augmentation-charges         9355 (set IRDMAX)


--------------------------------------------------------------------------------------------------------


 First call to EWALD:  gamma=   0.117
 Maximum number of real-space cells 4x 6x 1
 Maximum number of reciprocal cells 2x 1x 9

    FEWALD:  cpu time      0.0045: real time      0.0047


--------------------------------------- Iteration      1(   1)  ---------------------------------------


    POTLOK:  cpu time      1.0310: real time      1.0997
    SETDIJ:  cpu time      2.6151: real time      2.6239
     EDDAV:  cpu time    904.5418: real time    906.9062
       DOS:  cpu time      0.0176: real time      0.0176
    --------------------------------------------
      LOOP:  cpu time    908.2054: real time    910.6474

 eigenvalue-minimisations  : 68912
 total energy-change (2. order) : 0.1409773E+05  (-0.6101486E+05)
 number of electron    1080.0000000 magnetization     114.0000000
 augmentation part     1080.0000000 magnetization     114.0000000

 Free energy of the ion-electron system (eV)
  ---------------------------------------------------
  alpha Z        PSCENC =      2233.42315227
  Ewald energy   TEWEN  =   3348502.89421580
  -Hartree energ DENC   =  -3473471.49546927
  -exchange      EXHF   =         0.00000000
  -V(xc)+E(xc)   XCENC  =      5054.57740737
  PAW double counting   =    114612.98700802  -112134.59721157
  entropy T*S    EENTRO =        -0.05768256
  eigenvalues    EBANDS =     -8238.12522789
  atomic energy  EATOM  =    137538.12490827
  Solvation  Ecorr_sol  =         0.00000000
  ---------------------------------------------------
  free energy    TOTEN  =     14097.73110045 eV

  energy without entropy =    14097.78878301  energy(sigma->0) =    14097.75994173


--------------------------------------------------------------------------------------------------------




--------------------------------------- Iteration      1(   2)  ---------------------------------------


     EDDAV:  cpu time   1012.2294: real time   1014.8360
       DOS:  cpu time      0.0126: real time      0.0126
    --------------------------------------------
      LOOP:  cpu time   1012.2420: real time   1014.8486

 eigenvalue-minimisations  : 79392
 total energy-change (2. order) :-0.1370386E+05  (-0.1304151E+05)
 number of electron    1080.0000000 magnetization     114.0000000
 augmentation part     1080.0000000 magnetization     114.0000000

 Free energy of the ion-electron system (eV)
  ---------------------------------------------------
  alpha Z        PSCENC =      2233.42315227
  Ewald energy   TEWEN  =   3348502.89421580
  -Hartree energ DENC   =  -3473471.49546927
  -exchange      EXHF   =         0.00000000
  -V(xc)+E(xc)   XCENC  =      5054.57740737
  PAW double counting   =    114612.98700802  -112134.59721157
  entropy T*S    EENTRO =        -0.05637960
  eigenvalues    EBANDS =    -21941.98332861
  atomic energy  EATOM  =    137538.12490827
  Solvation  Ecorr_sol  =         0.00000000
  ---------------------------------------------------
  free energy    TOTEN  =       393.87430270 eV

  energy without entropy =      393.93068229  energy(sigma->0) =      393.90249249


--------------------------------------------------------------------------------------------------------




--------------------------------------- Iteration      1(   3)  ---------------------------------------


     EDDAV:  cpu time    909.6447: real time    911.9783
       DOS:  cpu time      0.0152: real time      0.0152
    --------------------------------------------
      LOOP:  cpu time    909.6599: real time    911.9936

 eigenvalue-minimisations  : 69344
 total energy-change (2. order) :-0.1394634E+04  (-0.1360954E+04)
 number of electron    1080.0000000 magnetization     114.0000000
 augmentation part     1080.0000000 magnetization     114.0000000

 Free energy of the ion-electron system (eV)
  ---------------------------------------------------
  alpha Z        PSCENC =      2233.42315227
  Ewald energy   TEWEN  =   3348502.89421580
  -Hartree energ DENC   =  -3473471.49546927
  -exchange      EXHF   =         0.00000000
  -V(xc)+E(xc)   XCENC  =      5054.57740737
  PAW double counting   =    114612.98700802  -112134.59721157
  entropy T*S    EENTRO =        -0.10801609
  eigenvalues    EBANDS =    -23336.56618747
  atomic energy  EATOM  =    137538.12490827
  Solvation  Ecorr_sol  =         0.00000000
  ---------------------------------------------------
  free energy    TOTEN  =     -1000.76019266 eV

  energy without entropy =    -1000.65217657  energy(sigma->0) =    -1000.70618462


--------------------------------------------------------------------------------------------------------




--------------------------------------- Iteration      1(   4)  ---------------------------------------


     EDDAV:  cpu time   1024.0417: real time   1026.8663
       DOS:  cpu time      0.0140: real time      0.0142
    --------------------------------------------
      LOOP:  cpu time   1024.0557: real time   1026.8805

 eigenvalue-minimisations  : 80384
 total energy-change (2. order) :-0.5555234E+02  (-0.5424157E+02)
 number of electron    1080.0000000 magnetization     114.0000000
 augmentation part     1080.0000000 magnetization     114.0000000

 Free energy of the ion-electron system (eV)
  ---------------------------------------------------
  alpha Z        PSCENC =      2233.42315227
  Ewald energy   TEWEN  =   3348502.89421580
  -Hartree energ DENC   =  -3473471.49546927
  -exchange      EXHF   =         0.00000000
  -V(xc)+E(xc)   XCENC  =      5054.57740737
  PAW double counting   =    114612.98700802  -112134.59721157
  entropy T*S    EENTRO =        -0.11594830
  eigenvalues    EBANDS =    -23392.11059390
  atomic energy  EATOM  =    137538.12490827
  Solvation  Ecorr_sol  =         0.00000000
  ---------------------------------------------------
  free energy    TOTEN  =     -1056.31253130 eV

  energy without entropy =    -1056.19658299  energy(sigma->0) =    -1056.25455715


--------------------------------------------------------------------------------------------------------




--------------------------------------- Iteration      1(   5)  ---------------------------------------


     EDDAV:  cpu time    967.4008: real time    969.8806
       DOS:  cpu time      0.0137: real time      0.0139
    --------------------------------------------
      LOOP:  cpu time    967.4145: real time    969.8945

 eigenvalue-minimisations  : 74896
 total energy-change (2. order) :-0.1721801E+01  (-0.1691721E+01)
 number of electron    1080.0000000 magnetization     114.0000000
 augmentation part     1080.0000000 magnetization     114.0000000

 Free energy of the ion-electron system (eV)
  ---------------------------------------------------
  alpha Z        PSCENC =      2233.42315227
  Ewald energy   TEWEN  =   3348502.89421580
  -Hartree energ DENC   =  -3473471.49546927
  -exchange      EXHF   =         0.00000000
  -V(xc)+E(xc)   XCENC  =      5054.57740737
  PAW double counting   =    114612.98700802  -112134.59721157
  entropy T*S    EENTRO =        -0.11760189
  eigenvalues    EBANDS =    -23393.83074136
  atomic energy  EATOM  =    137538.12490827
  Solvation  Ecorr_sol  =         0.00000000
  ---------------------------------------------------
  free energy    TOTEN  =     -1058.03433235 eV

  energy without entropy =    -1057.91673046  energy(sigma->0) =    -1057.97553141


--------------------------------------------------------------------------------------------------------




--------------------------------------- Iteration      1(   6)  ---------------------------------------


     EDDAV:  cpu time   1022.7443: real time   1025.3667
       DOS:  cpu time      0.0138: real time      0.0138
    --------------------------------------------
      LOOP:  cpu time   1022.7581: real time   1025.3805

 eigenvalue-minimisations  : 80352
 total energy-change (2. order) :-0.7569622E-01  (-0.7531644E-01)
 number of electron    1080.0000000 magnetization     114.0000000
 augmentation part     1080.0000000 magnetization     114.0000000

 Free energy of the ion-electron system (eV)
  ---------------------------------------------------
  alpha Z        PSCENC =      2233.42315227
  Ewald energy   TEWEN  =   3348502.89421580
  -Hartree energ DENC   =  -3473471.49546927
  -exchange      EXHF   =         0.00000000
  -V(xc)+E(xc)   XCENC  =      5054.57740737
  PAW double counting   =    114612.98700802  -112134.59721157
  entropy T*S    EENTRO =        -0.11773411
  eigenvalues    EBANDS =    -23393.90630537
  atomic energy  EATOM  =    137538.12490827
  Solvation  Ecorr_sol  =         0.00000000
  ---------------------------------------------------
  free energy    TOTEN  =     -1058.11002858 eV

  energy without entropy =    -1057.99229447  energy(sigma->0) =    -1058.05116152


--------------------------------------------------------------------------------------------------------




--------------------------------------- Iteration      1(   7)  ---------------------------------------


     EDDAV:  cpu time    961.0056: real time    963.4662
       DOS:  cpu time      0.0129: real time      0.0129
    --------------------------------------------
      LOOP:  cpu time    961.0185: real time    963.4791

 eigenvalue-minimisations  : 74336
 total energy-change (2. order) :-0.3436390E-02  (-0.3430945E-02)
 number of electron    1080.0000000 magnetization     114.0000000
 augmentation part     1080.0000000 magnetization     114.0000000

 Free energy of the ion-electron system (eV)
  ---------------------------------------------------
  alpha Z        PSCENC =      2233.42315227
  Ewald energy   TEWEN  =   3348502.89421580
  -Hartree energ DENC   =  -3473471.49546927
  -exchange      EXHF   =         0.00000000
  -V(xc)+E(xc)   XCENC  =      5054.57740737
  PAW double counting   =    114612.98700802  -112134.59721157
  entropy T*S    EENTRO =        -0.11774485
  eigenvalues    EBANDS =    -23393.90973102
  atomic energy  EATOM  =    137538.12490827
  Solvation  Ecorr_sol  =         0.00000000
  ---------------------------------------------------
  free energy    TOTEN  =     -1058.11346497 eV

  energy without entropy =    -1057.99572012  energy(sigma->0) =    -1058.05459254


--------------------------------------------------------------------------------------------------------




--------------------------------------- Iteration      1(   8)  ---------------------------------------


     EDDAV:  cpu time    986.9149: real time    989.4861
       DOS:  cpu time      0.0129: real time      0.0130
    CHARGE:  cpu time     51.7789: real time     51.9145
    MIXING:  cpu time      0.0341: real time      0.0343
    --------------------------------------------
      LOOP:  cpu time   1038.7409: real time   1041.4480

 eigenvalue-minimisations  : 76864
 total energy-change (2. order) :-0.2018837E-03  (-0.2017096E-03)
 number of electron    1080.0000002 magnetization     112.3272902
 augmentation part       46.7362970 magnetization      91.4612941

 Broyden mixing:
  rms(total) = 0.35591E+02    rms(broyden)= 0.35589E+02
  rms(prec ) = 0.35633E+02
  weight for this iteration     100.00

 Free energy of the ion-electron system (eV)
  ---------------------------------------------------
  alpha Z        PSCENC =      2233.42315227
  Ewald energy   TEWEN  =   3348502.89421580
  -Hartree energ DENC   =  -3473471.49546927
  -exchange      EXHF   =         0.00000000
  -V(xc)+E(xc)   XCENC  =      5054.57740737
  PAW double counting   =    114612.98700802  -112134.59721157
  entropy T*S    EENTRO =        -0.11774587
  eigenvalues    EBANDS =    -23393.90993188
  atomic energy  EATOM  =    137538.12490827
  Solvation  Ecorr_sol  =         0.00000000
  ---------------------------------------------------
  free energy    TOTEN  =     -1058.11366685 eV

  energy without entropy =    -1057.99592098  energy(sigma->0) =    -1058.05479391


--------------------------------------------------------------------------------------------------------




--------------------------------------- Iteration      1(   9)  ---------------------------------------


    POTLOK:  cpu time      1.0420: real time      1.0468
    SETDIJ:  cpu time      2.5999: real time      2.6066
     EDDAV:  cpu time    970.2746: real time    972.7575
       DOS:  cpu time      0.0120: real time      0.0122
    CHARGE:  cpu time     51.6250: real time     51.7572
    MIXING:  cpu time      0.0227: real time      0.0427
    --------------------------------------------
      LOOP:  cpu time   1025.5763: real time   1028.2229

 eigenvalue-minimisations  : 75280
 total energy-change (2. order) : 0.3773756E+03  (-0.1508037E+03)
 number of electron    1080.0000002 magnetization     110.4001031
 augmentation part       44.1369951 magnetization      85.7393057

 Broyden mixing:
  rms(total) = 0.27530E+02    rms(broyden)= 0.27529E+02
  rms(prec ) = 0.27563E+02
  weight for this iteration     100.00

 eigenvalues of (default mixing * dielectric matrix)
  average eigenvalue GAMMA=   0.9829
  0.9829

 Free energy of the ion-electron system (eV)
  ---------------------------------------------------
  alpha Z        PSCENC =      2233.42315227
  Ewald energy   TEWEN  =   3348502.89421580
  -Hartree energ DENC   =  -3471911.65249483
  -exchange      EXHF   =         0.00000000
  -V(xc)+E(xc)   XCENC  =      5138.43238263
  PAW double counting   =    137967.60805871  -135679.94676419
  entropy T*S    EENTRO =        -0.05916899
  eigenvalues    EBANDS =    -24469.56230707
  atomic energy  EATOM  =    137538.12490827
  Solvation  Ecorr_sol  =         0.00000000
  ---------------------------------------------------
  free energy    TOTEN  =      -680.73801740 eV

  energy without entropy =     -680.67884841  energy(sigma->0) =     -680.70843290


--------------------------------------------------------------------------------------------------------




--------------------------------------- Iteration      1(  10)  ---------------------------------------


    POTLOK:  cpu time      0.9954: real time      0.9983
    SETDIJ:  cpu time      2.5562: real time      2.5635
     EDDAV:  cpu time   1017.1686: real time   1019.7780
       DOS:  cpu time      0.0150: real time      0.0150
    CHARGE:  cpu time     51.4826: real time     51.6143
    MIXING:  cpu time      0.0238: real time      0.0279
    --------------------------------------------
      LOOP:  cpu time   1072.2415: real time   1074.9970

 eigenvalue-minimisations  : 79760
 total energy-change (2. order) :-0.3381608E+02  (-0.6033734E+02)
 number of electron    1080.0000002 magnetization     107.3010853
 augmentation part       46.1987694 magnetization      89.8595785

 Broyden mixing:
  rms(total) = 0.16173E+02    rms(broyden)= 0.16171E+02
  rms(prec ) = 0.16263E+02
  weight for this iteration     100.00

 eigenvalues of (default mixing * dielectric matrix)
  average eigenvalue GAMMA=   1.3395
  2.1461  0.5328

 Free energy of the ion-electron system (eV)
  ---------------------------------------------------
  alpha Z        PSCENC =      2233.42315227
  Ewald energy   TEWEN  =   3348502.89421580
  -Hartree energ DENC   =  -3472979.40921608
  -exchange      EXHF   =         0.00000000
  -V(xc)+E(xc)   XCENC  =      5145.78171229
  PAW double counting   =    176234.45675559  -173787.26070129
  entropy T*S    EENTRO =        -0.05416887
  eigenvalues    EBANDS =    -23602.51075425
  atomic energy  EATOM  =    137538.12490827
  Solvation  Ecorr_sol  =         0.00000000
  ---------------------------------------------------
  free energy    TOTEN  =      -714.55409627 eV

  energy without entropy =     -714.49992739  energy(sigma->0) =     -714.52701183


--------------------------------------------------------------------------------------------------------




--------------------------------------- Iteration      1(  11)  ---------------------------------------


    POTLOK:  cpu time      0.9953: real time      0.9982
    SETDIJ:  cpu time      2.5526: real time      2.5591
     EDDAV:  cpu time   1017.6841: real time   1020.2906
       DOS:  cpu time      0.0142: real time      0.0143
    CHARGE:  cpu time     51.5131: real time     51.6450
    MIXING:  cpu time      0.0228: real time      0.2037
    --------------------------------------------
      LOOP:  cpu time   1072.7822: real time   1075.7110

 eigenvalue-minimisations  : 79872
 total energy-change (2. order) : 0.1187683E+03  (-0.2481411E+02)
 number of electron    1080.0000002 magnetization     105.8211467
 augmentation part       46.0887190 magnetization      90.1203344

 Broyden mixing:
  rms(total) = 0.91058E+01    rms(broyden)= 0.91014E+01
  rms(prec ) = 0.94224E+01
  weight for this iteration     100.00

 eigenvalues of (default mixing * dielectric matrix)
  average eigenvalue GAMMA=   1.2473
  2.5530  0.5944  0.5944

 Free energy of the ion-electron system (eV)
  ---------------------------------------------------
  alpha Z        PSCENC =      2233.42315227
  Ewald energy   TEWEN  =   3348502.89421580
  -Hartree energ DENC   =  -3472627.73284593
  -exchange      EXHF   =         0.00000000
  -V(xc)+E(xc)   XCENC  =      5194.93955018
  PAW double counting   =    209190.27582440  -206717.11817395
  entropy T*S    EENTRO =        -0.04808073
  eigenvalues    EBANDS =    -23910.54433779
  atomic energy  EATOM  =    137538.12490827
  Solvation  Ecorr_sol  =         0.00000000
  ---------------------------------------------------
  free energy    TOTEN  =      -595.78578747 eV

  energy without entropy =     -595.73770674  energy(sigma->0) =     -595.76174711


--------------------------------------------------------------------------------------------------------




--------------------------------------- Iteration      1(  12)  ---------------------------------------


    POTLOK:  cpu time      0.9918: real time      0.9944
    SETDIJ:  cpu time      2.5489: real time      2.5552
     EDDAV:  cpu time    981.3830: real time    983.9058
       DOS:  cpu time      0.0177: real time      0.0178
    CHARGE:  cpu time     51.5514: real time     51.6836
    MIXING:  cpu time      0.0232: real time      0.0234
    --------------------------------------------
      LOOP:  cpu time   1036.5160: real time   1039.1803

 eigenvalue-minimisations  : 76336
 total energy-change (2. order) : 0.1396526E+02  (-0.3383280E+02)
 number of electron    1080.0000002 magnetization     105.0366843
 augmentation part       45.3701680 magnetization      84.3831852

 Broyden mixing:
  rms(total) = 0.15979E+02    rms(broyden)= 0.15976E+02
  rms(prec ) = 0.16351E+02
  weight for this iteration     100.00

 eigenvalues of (default mixing * dielectric matrix)
  average eigenvalue GAMMA=   1.0452
  2.7261  0.6237  0.6237  0.2074

 Free energy of the ion-electron system (eV)
  ---------------------------------------------------
  alpha Z        PSCENC =      2233.42315227
  Ewald energy   TEWEN  =   3348502.89421580
  -Hartree energ DENC   =  -3472759.32164220
  -exchange      EXHF   =         0.00000000
  -V(xc)+E(xc)   XCENC  =      5222.40093062
  PAW double counting   =    214576.23440195  -212123.84941086
  entropy T*S    EENTRO =        -0.08600243
  eigenvalues    EBANDS =    -23771.64107904
  atomic energy  EATOM  =    137538.12490827
  Solvation  Ecorr_sol  =         0.00000000
  ---------------------------------------------------
  free energy    TOTEN  =      -581.82052560 eV

  energy without entropy =     -581.73452318  energy(sigma->0) =     -581.77752439


--------------------------------------------------------------------------------------------------------




--------------------------------------- Iteration      1(  13)  ---------------------------------------


    POTLOK:  cpu time      0.9958: real time      1.0011
    SETDIJ:  cpu time      2.5500: real time      2.5576
     EDDAV:  cpu time    955.0063: real time    957.4560
       DOS:  cpu time      0.0261: real time      0.0263
    CHARGE:  cpu time     51.5229: real time     51.6542
    MIXING:  cpu time      0.0154: real time      0.0154
    --------------------------------------------
      LOOP:  cpu time   1010.1163: real time   1012.7105

 eigenvalue-minimisations  : 73792
 total energy-change (2. order) : 0.4264903E+02  (-0.6077140E+01)
 number of electron    1080.0000002 magnetization     104.2178165
 augmentation part       44.4762570 magnetization      87.4266481

 Broyden mixing:
  rms(total) = 0.68313E+01    rms(broyden)= 0.68301E+01
  rms(prec ) = 0.70708E+01
  weight for this iteration     100.00

 eigenvalues of (default mixing * dielectric matrix)
  average eigenvalue GAMMA=   0.9333
  2.7355  0.7022  0.6379  0.2955  0.2955

 Free energy of the ion-electron system (eV)
  ---------------------------------------------------
  alpha Z        PSCENC =      2233.42315227
  Ewald energy   TEWEN  =   3348502.89421580
  -Hartree energ DENC   =  -3472600.86832266
  -exchange      EXHF   =         0.00000000
  -V(xc)+E(xc)   XCENC  =      5214.54820324
  PAW double counting   =    218754.69605308  -216304.46640847
  entropy T*S    EENTRO =        -0.07942488
  eigenvalues    EBANDS =    -23877.44387334
  atomic energy  EATOM  =    137538.12490827
  Solvation  Ecorr_sol  =         0.00000000
  ---------------------------------------------------
  free energy    TOTEN  =      -539.17149669 eV

  energy without entropy =     -539.09207181  energy(sigma->0) =     -539.13178425


--------------------------------------------------------------------------------------------------------




--------------------------------------- Iteration      1(  14)  ---------------------------------------


    POTLOK:  cpu time      0.9957: real time      0.9984
    SETDIJ:  cpu time      2.5675: real time      2.5744
     EDDAV:  cpu time    966.5385: real time    969.0179
       DOS:  cpu time      0.0128: real time      0.0128
    CHARGE:  cpu time     51.8566: real time     51.9894
    MIXING:  cpu time      0.0203: real time      0.0204
    --------------------------------------------
      LOOP:  cpu time   1021.9914: real time   1024.6133

 eigenvalue-minimisations  : 74864
 total energy-change (2. order) : 0.1442905E+02  (-0.3333981E+01)
 number of electron    1080.0000002 magnetization     104.0070241
 augmentation part       44.3929266 magnetization      79.6524963

 Broyden mixing:
  rms(total) = 0.51283E+01    rms(broyden)= 0.51229E+01
  rms(prec ) = 0.51627E+01
  weight for this iteration     100.00

 eigenvalues of (default mixing * dielectric matrix)
  average eigenvalue GAMMA=   0.7938
  2.7361  0.7245  0.5945  0.2726  0.2726  0.1621

 Free energy of the ion-electron system (eV)
  ---------------------------------------------------
  alpha Z        PSCENC =      2233.42315227
  Ewald energy   TEWEN  =   3348502.89421580
  -Hartree energ DENC   =  -3472482.74780262
  -exchange      EXHF   =         0.00000000
  -V(xc)+E(xc)   XCENC  =      5216.26625078
  PAW double counting   =    217349.68096803  -214901.62430478
  entropy T*S    EENTRO =        -0.07815315
  eigenvalues    EBANDS =    -23980.68168316
  atomic energy  EATOM  =    137538.12490827
  Solvation  Ecorr_sol  =         0.00000000
  ---------------------------------------------------
  free energy    TOTEN  =      -524.74244855 eV

  energy without entropy =     -524.66429540  energy(sigma->0) =     -524.70337197


--------------------------------------------------------------------------------------------------------




--------------------------------------- Iteration      1(  15)  ---------------------------------------


    POTLOK:  cpu time      0.9978: real time      1.0008
    SETDIJ:  cpu time      2.5601: real time      2.5666
     EDDAV:  cpu time    936.2958: real time    938.7014
       DOS:  cpu time      0.0227: real time      0.0227
    CHARGE:  cpu time     51.7287: real time     51.8611
    MIXING:  cpu time      0.0227: real time      0.0228
    --------------------------------------------
      LOOP:  cpu time    991.6278: real time    994.1753

 eigenvalue-minimisations  : 72000
 total energy-change (2. order) :-0.1404710E+02  (-0.1892705E+01)
 number of electron    1080.0000002 magnetization     103.8780980
 augmentation part       44.2499685 magnetization      78.2516695

 Broyden mixing:
  rms(total) = 0.40997E+01    rms(broyden)= 0.40989E+01
  rms(prec ) = 0.41263E+01
  weight for this iteration     100.00

 eigenvalues of (default mixing * dielectric matrix)
  average eigenvalue GAMMA=   0.7180
  2.7386  0.7253  0.5904  0.2925  0.2925  0.2318  0.1550

 Free energy of the ion-electron system (eV)
  ---------------------------------------------------
  alpha Z        PSCENC =      2233.42315227
  Ewald energy   TEWEN  =   3348502.89421580
  -Hartree energ DENC   =  -3472519.86609071
  -exchange      EXHF   =         0.00000000
  -V(xc)+E(xc)   XCENC  =      5201.51837314
  PAW double counting   =    217097.10918735  -214647.55562489
  entropy T*S    EENTRO =        -0.08039484
  eigenvalues    EBANDS =    -23944.35727739
  atomic energy  EATOM  =    137538.12490827
  Solvation  Ecorr_sol  =         0.00000000
  ---------------------------------------------------
  free energy    TOTEN  =      -538.78955099 eV

  energy without entropy =     -538.70915615  energy(sigma->0) =     -538.74935357


--------------------------------------------------------------------------------------------------------




--------------------------------------- Iteration      1(  16)  ---------------------------------------


    POTLOK:  cpu time      0.9982: real time      1.0008
    SETDIJ:  cpu time      2.5616: real time      2.5680
     EDDAV:  cpu time    842.7202: real time    844.9223
       DOS:  cpu time      0.0148: real time      0.0150
    CHARGE:  cpu time     51.5486: real time     51.6800
    MIXING:  cpu time      0.0323: real time      0.1638
    --------------------------------------------
      LOOP:  cpu time    897.8758: real time    900.3499

 eigenvalue-minimisations  : 62928
 total energy-change (2. order) :-0.8316935E+01  (-0.1111731E+00)
 number of electron    1080.0000002 magnetization     103.0396036
 augmentation part       44.2176088 magnetization      76.8463890

 Broyden mixing:
  rms(total) = 0.39949E+01    rms(broyden)= 0.39949E+01
  rms(prec ) = 0.40187E+01
  weight for this iteration     100.00

 eigenvalues of (default mixing * dielectric matrix)
  average eigenvalue GAMMA=   0.7449
  2.7411  0.5026  0.5026  0.7472  0.5903  0.3050  0.3050  0.2657

 Free energy of the ion-electron system (eV)
  ---------------------------------------------------
  alpha Z        PSCENC =      2233.42315227
  Ewald energy   TEWEN  =   3348502.89421580
  -Hartree energ DENC   =  -3472509.43403853
  -exchange      EXHF   =         0.00000000
  -V(xc)+E(xc)   XCENC  =      5195.69970254
  PAW double counting   =    216795.96311702  -214346.65593416
  entropy T*S    EENTRO =        -0.06611662
  eigenvalues    EBANDS =    -23957.05549266
  atomic energy  EATOM  =    137538.12490827
  Solvation  Ecorr_sol  =         0.00000000
  ---------------------------------------------------
  free energy    TOTEN  =      -547.10648606 eV

  energy without entropy =     -547.04036944  energy(sigma->0) =     -547.07342775


--------------------------------------------------------------------------------------------------------




--------------------------------------- Iteration      1(  17)  ---------------------------------------


    POTLOK:  cpu time      0.9919: real time      1.0121
    SETDIJ:  cpu time      2.5691: real time      2.5755
     EDDAV:  cpu time    921.4346: real time    923.8096
       DOS:  cpu time      0.0132: real time      0.0132
    CHARGE:  cpu time     51.6595: real time     51.7923
    MIXING:  cpu time      0.0227: real time      0.0229
    --------------------------------------------
      LOOP:  cpu time    976.6910: real time    979.2255

 eigenvalue-minimisations  : 70480
 total energy-change (2. order) :-0.3526006E+02  (-0.8317201E+00)
 number of electron    1080.0000002 magnetization     100.9130677
 augmentation part       44.1651816 magnetization      73.1549456

 Broyden mixing:
  rms(total) = 0.32963E+01    rms(broyden)= 0.32960E+01
  rms(prec ) = 0.33062E+01
  weight for this iteration     100.00

 eigenvalues of (default mixing * dielectric matrix)
  average eigenvalue GAMMA=   0.8082
  2.7349  0.8983  0.8983  0.8480  0.5525  0.3594  0.3594  0.3114  0.3114

 Free energy of the ion-electron system (eV)
  ---------------------------------------------------
  alpha Z        PSCENC =      2233.42315227
  Ewald energy   TEWEN  =   3348502.89421580
  -Hartree energ DENC   =  -3472458.40002581
  -exchange      EXHF   =         0.00000000
  -V(xc)+E(xc)   XCENC  =      5175.64044106
  PAW double counting   =    215492.36833768  -213044.56090315
  entropy T*S    EENTRO =        -0.06813575
  eigenvalues    EBANDS =    -24021.78853604
  atomic energy  EATOM  =    137538.12490827
  Solvation  Ecorr_sol  =         0.00000000
  ---------------------------------------------------
  free energy    TOTEN  =      -582.36654566 eV

  energy without entropy =     -582.29840992  energy(sigma->0) =     -582.33247779


--------------------------------------------------------------------------------------------------------




--------------------------------------- Iteration      1(  18)  ---------------------------------------


    POTLOK:  cpu time      1.0039: real time      1.0066
    SETDIJ:  cpu time      2.5669: real time      2.5734
     EDDAV:  cpu time    927.2447: real time    929.6214
       DOS:  cpu time      0.0126: real time      0.0127
    CHARGE:  cpu time     51.4721: real time     51.6037
    MIXING:  cpu time      0.0234: real time      0.0234
    --------------------------------------------
      LOOP:  cpu time    982.3235: real time    984.8411

 eigenvalue-minimisations  : 71024
 total energy-change (2. order) :-0.5661644E+02  (-0.2865448E+01)
 number of electron    1080.0000002 magnetization      99.8469732
 augmentation part       44.0834510 magnetization      74.1429379

 Broyden mixing:
  rms(total) = 0.31170E+01    rms(broyden)= 0.31165E+01
  rms(prec ) = 0.31324E+01
  weight for this iteration     100.00

 eigenvalues of (default mixing * dielectric matrix)
  average eigenvalue GAMMA=   0.7854
  2.7165  0.9566  0.9566  0.9062  0.5904  0.4333  0.4333  0.2909  0.2909  0.2797

 Free energy of the ion-electron system (eV)
  ---------------------------------------------------
  alpha Z        PSCENC =      2233.42315227
  Ewald energy   TEWEN  =   3348502.89421580
  -Hartree energ DENC   =  -3472374.12253107
  -exchange      EXHF   =         0.00000000
  -V(xc)+E(xc)   XCENC  =      5142.48840374
  PAW double counting   =    212071.48169900  -209625.61048653
  entropy T*S    EENTRO =        -0.06549078
  eigenvalues    EBANDS =    -24127.59686039
  atomic energy  EATOM  =    137538.12490827
  Solvation  Ecorr_sol  =         0.00000000
  ---------------------------------------------------
  free energy    TOTEN  =      -638.98298969 eV

  energy without entropy =     -638.91749891  energy(sigma->0) =     -638.95024430


--------------------------------------------------------------------------------------------------------




--------------------------------------- Iteration      1(  19)  ---------------------------------------


    POTLOK:  cpu time      1.0027: real time      1.0054
    SETDIJ:  cpu time      2.5937: real time      2.6015
     EDDAV:  cpu time    923.8743: real time    926.2419
       DOS:  cpu time      0.0342: real time      0.0343
    CHARGE:  cpu time     51.4864: real time     51.6192
    MIXING:  cpu time      0.0227: real time      0.0227
    --------------------------------------------
      LOOP:  cpu time    979.0140: real time    981.5252

 eigenvalue-minimisations  : 70736
 total energy-change (2. order) :-0.1338638E+02  (-0.5881507E+00)
[...]
      6.35503      4.80172     10.18689         0.000000      0.000000      0.011103
      1.58876      2.82270      8.98501         0.000000      0.010749      0.010706
      4.76627      2.82270      8.98501         0.000000      0.010749      0.010706
      7.94378      2.82270      8.98501         0.000000      0.010749      0.010706
      0.00000      1.60057     10.91741        -0.000000      0.000000      0.010374
      3.17751      1.60057     10.91741        -0.000000      0.000000      0.010374
      6.35503      1.60057     10.91741         0.000000      0.000000      0.010374
      1.58876      3.57222     12.15757        -0.000000     -0.011692      0.014488
      4.76627      3.57222     12.15757        -0.000000     -0.011692      0.014488
      7.94378      3.57222     12.15757        -0.000000     -0.011692      0.014488
      0.00000      1.60057     13.38601        -0.000000      0.000000      0.001958
      3.17751      1.60057     13.38601         0.000000      0.000000      0.001958
      6.35503      1.60057     13.38601        -0.000000      0.000000      0.001958
      1.58876      6.03122     12.15757         0.000000      0.011692      0.014488
      4.76627      6.03122     12.15757         0.000000      0.011692      0.014488
      7.94378      6.03122     12.15757         0.000000      0.011692      0.014488
      0.00000      4.80172     14.13814        -0.000000      0.000000     -0.048570
      3.17751      4.80172     14.13814        -0.000000      0.000000     -0.048570
      6.35503      4.80172     14.13814        -0.000000      0.000000     -0.048570
      1.58876      0.37321     15.36550        -0.000000     -0.000527     -0.001411
      4.76627      0.37321     15.36550        -0.000000     -0.000527     -0.001411
      7.94378      0.37321     15.36550        -0.000000     -0.000527     -0.001411
      0.00000      4.80172     16.59286        -0.000000      0.000000     -0.006601
      3.17751      4.80172     16.59286        -0.000000      0.000000     -0.006601
      6.35503      4.80172     16.59286        -0.000000      0.000000     -0.006601
      1.58876      2.82793     15.36550         0.000000      0.000527     -0.001411
      4.76627      2.82793     15.36550         0.000000      0.000527     -0.001411
      7.94378      2.82793     15.36550         0.000000      0.000527     -0.001411
      0.00000      1.60057     17.33929         0.000000      0.000000      0.006601
      3.17751      1.60057     17.33929        -0.000000      0.000000      0.006601
      6.35503      1.60057     17.33929         0.000000      0.000000      0.006601
      1.58876      3.57436     18.56665        -0.000000     -0.000527      0.001411
      4.76627      3.57436     18.56665        -0.000000     -0.000527      0.001411
      7.94378      3.57436     18.56665        -0.000000     -0.000527      0.001411
      0.00000      1.60057     19.79400        -0.000000      0.000000      0.048570
      3.17751      1.60057     19.79400         0.000000      0.000000      0.048570
      6.35503      1.60057     19.79400        -0.000000      0.000000      0.048570
      1.58876      6.02908     18.56665         0.000000      0.000527      0.001411
      4.76627      6.02908     18.56665         0.000000      0.000527      0.001411
      7.94378      6.02908     18.56665         0.000000      0.000527      0.001411
      0.00000      4.80172     20.54614        -0.000000      0.000000     -0.001958
      3.17751      4.80172     20.54614        -0.000000      0.000000     -0.001958
      6.35503      4.80172     20.54614         0.000000      0.000000     -0.001958
      1.58876      0.37107     21.77458        -0.000000     -0.011692     -0.014488
      4.76627      0.37107     21.77458        -0.000000     -0.011692     -0.014488
      7.94378      0.37107     21.77458        -0.000000     -0.011692     -0.014488
      0.00000      4.80172     23.01474         0.000000      0.000000     -0.010374
      3.17751      4.80172     23.01474        -0.000000      0.000000     -0.010374
      6.35503      4.80172     23.01474         0.000000      0.000000     -0.010374
      1.58876      2.83007     21.77458         0.000000      0.011692     -0.014488
      4.76627      2.83007     21.77458         0.000000      0.011692     -0.014488
      7.94378      2.83007     21.77458         0.000000      0.011692     -0.014488
      0.00000      1.60057     23.74525         0.000000      0.000000     -0.011103
      3.17751      1.60057     23.74525        -0.000000      0.000000     -0.011103
      6.35503      1.60057     23.74525         0.000000      0.000000     -0.011103
      1.58876      3.57959     24.94714        -0.000000     -0.010749     -0.010706
      4.76627      3.57959     24.94714        -0.000000     -0.010749     -0.010706
      7.94378      3.57959     24.94714        -0.000000     -0.010749     -0.010706
      0.00000      1.60057     26.15120        -0.000000      0.000000     -0.028052
      3.17751      1.60057     26.15120         0.000000      0.000000     -0.028052
      6.35503      1.60057     26.15120        -0.000000      0.000000     -0.028052
      1.58876      6.02384     24.94714         0.000000      0.010749     -0.010706
      4.76627      6.02384     24.94714         0.000000      0.010749     -0.010706
      7.94378      6.02384     24.94714         0.000000      0.010749     -0.010706
      0.00000      1.60057      7.08118         0.000000      0.000000      0.001235
      0.00000      4.80172     26.85087        -0.000000      0.000000     -0.001235
      3.17751      1.60057      7.08118         0.000000      0.000000      0.001235
      6.35503      4.80172     26.85087         0.000000      0.000000     -0.001235
      6.35503      1.60057      7.08118        -0.000000      0.000000      0.001235
      3.17751      4.80172     26.85087         0.000000      0.000000     -0.001235
 -----------------------------------------------------------------------------------
    total drift:                                0.000000      0.000000      0.349893


--------------------------------------------------------------------------------------------------------



  FREE ENERGIE OF THE ION-ELECTRON SYSTEM (eV)
  ---------------------------------------------------
  free  energy   TOTEN  =      -811.00933650 eV

  energy  without entropy=     -810.93986524  energy(sigma->0) =     -810.97460087
 


--------------------------------------------------------------------------------------------------------


    POTLOK:  cpu time      3.5481: real time      3.6166


--------------------------------------------------------------------------------------------------------


     LOOP+:  cpu time  70343.6183: real time  70531.6554
    4ORBIT:  cpu time      0.0000: real time      0.0000



 total charge

# of ion       s       p       d       f       tot
--------------------------------------------------
    1        3.729   6.126   6.109   0.066  16.029
    2        3.729   6.126   6.109   0.066  16.029
    3        3.729   6.126   6.109   0.066  16.029
    4        3.822   6.137   6.104   0.078  16.142
    5        3.822   6.137   6.104   0.078  16.142
    6        3.822   6.137   6.104   0.078  16.142
    7        3.647   6.119   6.164   0.060  15.991
    8        3.647   6.119   6.164   0.060  15.991
    9        3.647   6.119   6.164   0.060  15.991
   10        3.641   6.118   6.174   0.060  15.993
   11        3.641   6.118   6.174   0.060  15.993
   12        3.641   6.118   6.174   0.060  15.993
   13        3.643   6.118   6.177   0.061  15.999
   14        3.643   6.118   6.177   0.061  15.999
   15        3.643   6.118   6.177   0.061  15.999
   16        3.639   6.118   6.177   0.060  15.994
   17        3.639   6.118   6.177   0.060  15.994
   18        3.639   6.118   6.177   0.060  15.994
   19        3.643   6.118   6.177   0.061  15.999
   20        3.643   6.118   6.177   0.061  15.999
   21        3.643   6.118   6.177   0.061  15.999
   22        3.639   6.118   6.177   0.060  15.994
   23        3.639   6.118   6.177   0.060  15.994
   24        3.639   6.118   6.177   0.060  15.994
   25        3.647   6.119   6.164   0.060  15.991
   26        3.647   6.119   6.164   0.060  15.991
   27        3.647   6.119   6.164   0.060  15.991
   28        3.641   6.118   6.174   0.060  15.993
   29        3.641   6.118   6.174   0.060  15.993
   30        3.641   6.118   6.174   0.060  15.993
   31        3.729   6.126   6.109   0.066  16.029
   32        3.729   6.126   6.109   0.066  16.029
   33        3.729   6.126   6.109   0.066  16.029
   34        3.822   6.137   6.104   0.078  16.142
   35        3.822   6.137   6.104   0.078  16.142
   36        3.822   6.137   6.104   0.078  16.142
   37        1.664   3.452   0.029   0.000   5.145
   38        1.664   3.452   0.029   0.000   5.145
   39        1.664   3.452   0.029   0.000   5.145
   40        1.630   3.594   0.034   0.000   5.259
   41        1.630   3.594   0.034   0.000   5.259
   42        1.630   3.594   0.034   0.000   5.259
   43        1.634   3.590   0.035   0.000   5.259
   44        1.634   3.590   0.035   0.000   5.259
   45        1.634   3.590   0.035   0.000   5.259
   46        1.630   3.594   0.034   0.000   5.259
   47        1.630   3.594   0.034   0.000   5.259
   48        1.630   3.594   0.034   0.000   5.259
   49        1.634   3.578   0.029   0.000   5.241
   50        1.634   3.578   0.029   0.000   5.241
   51        1.634   3.578   0.029   0.000   5.241
   52        1.629   3.592   0.036   0.000   5.256
   53        1.629   3.592   0.036   0.000   5.256
   54        1.629   3.592   0.036   0.000   5.256
   55        1.628   3.592   0.035   0.000   5.255
   56        1.628   3.592   0.035   0.000   5.255
   57        1.628   3.592   0.035   0.000   5.255
   58        1.629   3.592   0.036   0.000   5.256
   59        1.629   3.592   0.036   0.000   5.256
   60        1.629   3.592   0.036   0.000   5.256
   61        1.628   3.594   0.035   0.000   5.257
   62        1.628   3.594   0.035   0.000   5.257
   63        1.628   3.594   0.035   0.000   5.257
   64        1.628   3.595   0.036   0.000   5.258
   65        1.628   3.595   0.036   0.000   5.258
   66        1.628   3.595   0.036   0.000   5.258
   67        1.628   3.595   0.036   0.000   5.259
   68        1.628   3.595   0.036   0.000   5.259
   69        1.628   3.595   0.036   0.000   5.259
   70        1.628   3.595   0.036   0.000   5.258
   71        1.628   3.595   0.036   0.000   5.258
   72        1.628   3.595   0.036   0.000   5.258
   73        1.628   3.595   0.036   0.000   5.259
   74        1.628   3.595   0.036   0.000   5.259
   75        1.628   3.595   0.036   0.000   5.259
   76        1.628   3.595   0.036   0.000   5.258
   77        1.628   3.595   0.036   0.000   5.258
   78        1.628   3.595   0.036   0.000   5.258
   79        1.628   3.594   0.035   0.000   5.257
   80        1.628   3.594   0.035   0.000   5.257
   81        1.628   3.594   0.035   0.000   5.257
   82        1.628   3.595   0.036   0.000   5.258
   83        1.628   3.595   0.036   0.000   5.258
   84        1.628   3.595   0.036   0.000   5.258
   85        1.628   3.592   0.035   0.000   5.255
   86        1.628   3.592   0.035   0.000   5.255
   87        1.628   3.592   0.035   0.000   5.255
   88        1.629   3.592   0.036   0.000   5.256
   89        1.629   3.592   0.036   0.000   5.256
   90        1.629   3.592   0.036   0.000   5.256
   91        1.634   3.578   0.029   0.000   5.241
   92        1.634   3.578   0.029   0.000   5.241
   93        1.634   3.578   0.029   0.000   5.241
   94        1.629   3.592   0.036   0.000   5.256
   95        1.629   3.592   0.036   0.000   5.256
   96        1.629   3.592   0.036   0.000   5.256
   97        1.634   3.590   0.035   0.000   5.259
   98        1.634   3.590   0.035   0.000   5.259
   99        1.634   3.590   0.035   0.000   5.259
  100        1.630   3.594   0.034   0.000   5.259
  101        1.630   3.594   0.034   0.000   5.259
  102        1.630   3.594   0.034   0.000   5.259
  103        1.664   3.452   0.029   0.000   5.145
  104        1.664   3.452   0.029   0.000   5.145
  105        1.664   3.452   0.029   0.000   5.145
  106        1.630   3.594   0.034   0.000   5.259
  107        1.630   3.594   0.034   0.000   5.259
  108        1.630   3.594   0.034   0.000   5.259
  109        1.688   3.360   0.034   0.000   5.082
  110        1.688   3.360   0.034   0.000   5.082
  111        1.688   3.360   0.034   0.000   5.082
  112        1.688   3.360   0.034   0.000   5.082
  113        1.688   3.360   0.034   0.000   5.082
  114        1.688   3.360   0.034   0.000   5.082
--------------------------------------------------
tot        260.400 498.342 224.089   2.312 985.142



 magnetization (x)

# of ion       s       p       d       f       tot
--------------------------------------------------
    1       -0.007  -0.001  -0.176  -0.000  -0.184
    2       -0.007  -0.001  -0.176  -0.000  -0.184
    3       -0.007  -0.001  -0.176  -0.000  -0.184
    4        0.016   0.003   0.533   0.004   0.556
    5        0.016   0.003   0.533   0.004   0.556
    6        0.016   0.003   0.533   0.004   0.556
    7       -0.002  -0.000  -0.128   0.000  -0.130
    8       -0.002  -0.000  -0.128   0.000  -0.130
    9       -0.002  -0.000  -0.128   0.000  -0.130
   10        0.001   0.000   0.046  -0.000   0.047
   11        0.001   0.000   0.046  -0.000   0.047
   12        0.001   0.000   0.046  -0.000   0.047
   13       -0.001   0.000   0.010   0.000   0.010
   14       -0.001   0.000   0.010   0.000   0.010
   15       -0.001   0.000   0.010   0.000   0.010
   16        0.002   0.000   0.010  -0.000   0.012
   17        0.002   0.000   0.010  -0.000   0.012
   18        0.002   0.000   0.010  -0.000   0.012
   19       -0.001   0.000   0.010   0.000   0.010
   20       -0.001   0.000   0.010   0.000   0.010
   21       -0.001   0.000   0.010   0.000   0.010
   22        0.002   0.000   0.010  -0.000   0.012
   23        0.002   0.000   0.010  -0.000   0.012
   24        0.002   0.000   0.010  -0.000   0.012
   25       -0.002  -0.000  -0.128   0.000  -0.130
   26       -0.002  -0.000  -0.128   0.000  -0.130
   27       -0.002  -0.000  -0.128   0.000  -0.130
   28        0.001   0.000   0.046  -0.000   0.047
   29        0.001   0.000   0.046  -0.000   0.047
   30        0.001   0.000   0.046  -0.000   0.047
   31       -0.007  -0.001  -0.176  -0.000  -0.184
   32       -0.007  -0.001  -0.176  -0.000  -0.184
   33       -0.007  -0.001  -0.176  -0.000  -0.184
   34        0.016   0.003   0.533   0.004   0.556
   35        0.016   0.003   0.533   0.004   0.556
   36        0.016   0.003   0.533   0.004   0.556
   37       -0.001  -0.061  -0.000   0.000  -0.062
   38       -0.001  -0.061  -0.000   0.000  -0.062
   39       -0.001  -0.061  -0.000   0.000  -0.062
   40        0.001  -0.020   0.001   0.000  -0.018
   41        0.001  -0.020   0.001   0.000  -0.018
   42        0.001  -0.020   0.001   0.000  -0.018
   43        0.000   0.012  -0.000   0.000   0.012
   44        0.000   0.012  -0.000   0.000   0.012
   45        0.000   0.012  -0.000   0.000   0.012
   46        0.001  -0.020   0.001   0.000  -0.018
   47        0.001  -0.020   0.001   0.000  -0.018
   48        0.001  -0.020   0.001   0.000  -0.018
   49       -0.002  -0.018   0.001   0.000  -0.018
   50       -0.002  -0.018   0.001   0.000  -0.018
   51       -0.002  -0.018   0.001   0.000  -0.018
   52        0.000  -0.002  -0.000   0.000  -0.003
   53        0.000  -0.002  -0.000   0.000  -0.003
   54        0.000  -0.002  -0.000   0.000  -0.003
   55       -0.000  -0.033   0.000   0.000  -0.033
   56       -0.000  -0.033   0.000   0.000  -0.033
   57       -0.000  -0.033   0.000   0.000  -0.033
   58        0.000  -0.002  -0.000   0.000  -0.003
   59        0.000  -0.002  -0.000   0.000  -0.003
   60        0.000  -0.002  -0.000   0.000  -0.003
   61        0.000   0.012   0.000   0.000   0.013
   62        0.000   0.012   0.000   0.000   0.013
   63        0.000   0.012   0.000   0.000   0.013
   64        0.000   0.002   0.000   0.000   0.002
   65        0.000   0.002   0.000   0.000   0.002
   66        0.000   0.002   0.000   0.000   0.002
   67        0.000   0.006   0.000   0.000   0.006
   68        0.000   0.006   0.000   0.000   0.006
   69        0.000   0.006   0.000   0.000   0.006
   70        0.000   0.002   0.000   0.000   0.002
   71        0.000   0.002   0.000   0.000   0.002
   72        0.000   0.002   0.000   0.000   0.002
   73        0.000   0.006   0.000   0.000   0.006
   74        0.000   0.006   0.000   0.000   0.006
   75        0.000   0.006   0.000   0.000   0.006
   76        0.000   0.002   0.000   0.000   0.002
   77        0.000   0.002   0.000   0.000   0.002
   78        0.000   0.002   0.000   0.000   0.002
   79        0.000   0.012   0.000   0.000   0.013
   80        0.000   0.012   0.000   0.000   0.013
   81        0.000   0.012   0.000   0.000   0.013
   82        0.000   0.002   0.000   0.000   0.002
   83        0.000   0.002   0.000   0.000   0.002
   84        0.000   0.002   0.000   0.000   0.002
   85       -0.000  -0.033   0.000   0.000  -0.033
   86       -0.000  -0.033   0.000   0.000  -0.033
   87       -0.000  -0.033   0.000   0.000  -0.033
   88        0.000  -0.002  -0.000   0.000  -0.003
   89        0.000  -0.002  -0.000   0.000  -0.003
   90        0.000  -0.002  -0.000   0.000  -0.003
   91       -0.002  -0.018   0.001   0.000  -0.018
   92       -0.002  -0.018   0.001   0.000  -0.018
   93       -0.002  -0.018   0.001   0.000  -0.018
   94        0.000  -0.002  -0.000   0.000  -0.003
   95        0.000  -0.002  -0.000   0.000  -0.003
   96        0.000  -0.002  -0.000   0.000  -0.003
   97        0.000   0.012  -0.000   0.000   0.012
   98        0.000   0.012  -0.000   0.000   0.012
   99        0.000   0.012  -0.000   0.000   0.012
  100        0.001  -0.020   0.001   0.000  -0.018
  101        0.001  -0.020   0.001   0.000  -0.018
  102        0.001  -0.020   0.001   0.000  -0.018
  103       -0.001  -0.061  -0.000   0.000  -0.062
  104       -0.001  -0.061  -0.000   0.000  -0.062
  105       -0.001  -0.061  -0.000   0.000  -0.062
  106        0.001  -0.020   0.001   0.000  -0.018
  107        0.001  -0.020   0.001   0.000  -0.018
  108        0.001  -0.020   0.001   0.000  -0.018
  109        0.010   0.678  -0.000   0.000   0.687
  110        0.010   0.678  -0.000   0.000   0.687
  111        0.010   0.678  -0.000   0.000   0.687
  112        0.010   0.678  -0.000   0.000   0.687
  113        0.010   0.678  -0.000   0.000   0.687
  114        0.010   0.678  -0.000   0.000   0.687
--------------------------------------------------
tot          0.116   3.339   1.792   0.022   5.269
 

 total amount of memory used by VASP MPI-rank0   970278. kBytes
=======================================================================

   base      :      30000. kBytes
   nonlr-proj:     184368. kBytes
   fftplans  :     107811. kBytes
   grid      :     125443. kBytes
   one-center:       1492. kBytes
   wavefun   :     521164. kBytes
 
  
  
 General timing and accounting informations for this job:
 ========================================================
  
                  Total CPU time used (sec):    70966.680
                            User time (sec):    70489.570
                          System time (sec):      477.112
                         Elapsed time (sec):    71166.620
  
                   Maximum memory used (kb):     1298420.
                   Average memory used (kb):          N/A
  
                          Minor page faults:      3923385
                          Major page faults:           29
                 Voluntary context switches:       447687
