# energy dos(up) dos(down)
-9.954384385000000179e+01 0.000000000000000000e+00 -0.000000000000000000e+00
-9.952464385000000391e+01 0.000000000000000000e+00 -0.000000000000000000e+00
-9.950534385000000270e+01 0.000000000000000000e+00 -0.000000000000000000e+00
-9.948604385000000150e+01 0.000000000000000000e+00 -0.000000000000000000e+00
-9.946684385000000361e+01 0.000000000000000000e+00 -0.000000000000000000e+00
-9.944754385000000241e+01 0.000000000000000000e+00 -0.000000000000000000e+00
-9.942824385000000120e+01 0.000000000000000000e+00 -0.000000000000000000e+00
-9.940894385000000000e+01 0.000000000000000000e+00 -0.000000000000000000e+00
-9.938974385000000211e+01 0.000000000000000000e+00 -0.000000000000000000e+00
-9.937044385000000091e+01 0.000000000000000000e+00 -0.000000000000000000e+00
-9.935114384999999970e+01 0.000000000000000000e+00 -0.000000000000000000e+00
-9.933194385000000182e+01 0.000000000000000000e+00 -0.000000000000000000e+00
-9.931264385000000061e+01 0.000000000000000000e+00 -0.000000000000000000e+00
-9.929334384999999941e+01 0.000000000000000000e+00 -0.000000000000000000e+00
-9.927404384999999820e+01 0.000000000000000000e+00 -0.000000000000000000e+00
-9.925484385000000032e+01 0.000000000000000000e+00 -0.000000000000000000e+00
-9.923554384999999911e+01 0.000000000000000000e+00 -0.000000000000000000e+00
-9.921624384999999791e+01 0.000000000000000000e+00 -0.000000000000000000e+00
-9.919704385000000002e+01 0.000000000000000000e+00 -0.000000000000000000e+00
-9.917774384999999882e+01 0.000000000000000000e+00 -0.000000000000000000e+00
-9.915844384999999761e+01 0.000000000000000000e+00 -0.000000000000000000e+00
-9.913914385000001062e+01 0.000000000000000000e+00 -0.000000000000000000e+00
-9.911994384999999852e+01 0.000000000000000000e+00 -0.000000000000000000e+00
-9.910064384999999731e+01 0.000000000000000000e+00 -0.000000000000000000e+00
-9.908134385000001032e+01 0.000000000000000000e+00 -0.000000000000000000e+00
-9.906214384999999822e+01 0.000000000000000000e+00 -0.000000000000000000e+00
-9.904284384999999702e+01 0.000000000000000000e+00 -0.000000000000000000e+00
-9.902354385000001002e+01 0.000000000000000000e+00 -0.000000000000000000e+00
-9.900424385000000882e+01 0.000000000000000000e+00 -0.000000000000000000e+00
-9.898504384999999672e+01 0.000000000000000000e+00 -0.000000000000000000e+00
-9.896574385000000973e+01 0.000000000000000000e+00 -0.000000000000000000e+00
-9.894644385000000852e+01 0.000000000000000000e+00 -0.000000000000000000e+00
-9.892724385000001064e+01 0.000000000000000000e+00 -0.000000000000000000e+00
-9.890794385000000943e+01 0.000000000000000000e+00 -0.000000000000000000e+00
-9.888864385000000823e+01 0.000000000000000000e+00 -0.000000000000000000e+00
-9.886934385000000702e+01 0.000000000000000000e+00 -0.000000000000000000e+00
-9.885014385000000914e+01 0.000000000000000000e+00 -0.000000000000000000e+00
-9.883084385000000793e+01 0.000000000000000000e+00 -0.000000000000000000e+00
-9.881154385000000673e+01 0.000000000000000000e+00 -0.000000000000000000e+00
-9.879234385000000884e+01 0.000000000000000000e+00 -0.000000000000000000e+00
-9.877304385000000764e+01 0.000000000000000000e+00 -0.000000000000000000e+00
-9.875374385000000643e+01 0.000000000000000000e+00 -0.000000000000000000e+00
-9.873454385000000855e+01 0.000000000000000000e+00 -0.000000000000000000e+00
-9.871524385000000734e+01 0.000000000000000000e+00 -0.000000000000000000e+00
-9.869594385000000614e+01 0.000000000000000000e+00 -0.000000000000000000e+00
-9.867664385000000493e+01 0.000000000000000000e+00 -0.000000000000000000e+00
-9.865744385000000705e+01 0.000000000000000000e+00 -0.000000000000000000e+00
-9.863814385000000584e+01 0.000000000000000000e+00 -0.000000000000000000e+00
-9.861884385000000464e+01 0.000000000000000000e+00 -0.000000000000000000e+00
-9.859964385000000675e+01 0.000000000000000000e+00 -0.000000000000000000e+00
-9.858034385000000555e+01 0.000000000000000000e+00 -0.000000000000000000e+00
-9.856104385000000434e+01 0.000000000000000000e+00 -0.000000000000000000e+00
-9.854174385000000314e+01 0.000000000000000000e+00 -0.000000000000000000e+00
-9.852254385000000525e+01 0.000000000000000000e+00 -0.000000000000000000e+00
-9.850324385000000404e+01 0.000000000000000000e+00 -0.000000000000000000e+00
-9.848394385000000284e+01 0.000000000000000000e+00 -0.000000000000000000e+00
-9.846474385000000495e+01 0.000000000000000000e+00 -0.000000000000000000e+00
-9.844544385000000375e+01 0.000000000000000000e+00 -0.000000000000000000e+00
-9.842614385000000254e+01 0.000000000000000000e+00 -0.000000000000000000e+00
-9.840684385000000134e+01 0.000000000000000000e+00 -0.000000000000000000e+00
-9.838764385000000345e+01 0.000000000000000000e+00 -0.000000000000000000e+00
-9.836834385000000225e+01 0.000000000000000000e+00 -0.000000000000000000e+00
-9.834904385000000104e+01 0.000000000000000000e+00 -0.000000000000000000e+00
-9.832984385000000316e+01 0.000000000000000000e+00 -0.000000000000000000e+00
-9.831054385000000195e+01 0.000000000000000000e+00 -0.000000000000000000e+00
-9.829124385000000075e+01 0.000000000000000000e+00 -0.000000000000000000e+00
-9.827194384999999954e+01 0.000000000000000000e+00 -0.000000000000000000e+00
-9.825274385000000166e+01 0.000000000000000000e+00 -0.000000000000000000e+00
-9.823344385000000045e+01 0.000000000000000000e+00 -0.000000000000000000e+00
-9.821414384999999925e+01 0.000000000000000000e+00 -0.000000000000000000e+00
-9.819494385000000136e+01 0.000000000000000000e+00 -0.000000000000000000e+00
-9.817564385000000016e+01 0.000000000000000000e+00 -0.000000000000000000e+00
-9.815634384999999895e+01 0.000000000000000000e+00 -0.000000000000000000e+00
-9.813704384999999775e+01 0.000000000000000000e+00 -0.000000000000000000e+00
-9.811784384999999986e+01 0.000000000000000000e+00 -0.000000000000000000e+00
-9.809854384999999866e+01 0.000000000000000000e+00 -0.000000000000000000e+00
-9.807924384999999745e+01 0.000000000000000000e+00 -0.000000000000000000e+00
-9.806004384999999957e+01 0.000000000000000000e+00 -0.000000000000000000e+00
-9.804074384999999836e+01 0.000000000000000000e+00 -0.000000000000000000e+00
-9.802144384999999716e+01 0.000000000000000000e+00 -0.000000000000000000e+00
-9.800214385000001016e+01 0.000000000000000000e+00 -0.000000000000000000e+00
-9.798294384999999806e+01 0.000000000000000000e+00 -0.000000000000000000e+00
-9.796364384999999686e+01 0.000000000000000000e+00 -0.000000000000000000e+00
-9.794434385000000987e+01 0.000000000000000000e+00 -0.000000000000000000e+00
-9.792514384999999777e+01 0.000000000000000000e+00 -0.000000000000000000e+00
-9.790584384999999656e+01 0.000000000000000000e+00 -0.000000000000000000e+00
-9.788654385000000957e+01 0.000000000000000000e+00 -0.000000000000000000e+00
-9.786724385000000836e+01 0.000000000000000000e+00 -0.000000000000000000e+00
-9.784804385000001048e+01 0.000000000000000000e+00 -0.000000000000000000e+00
-9.782874385000000927e+01 0.000000000000000000e+00 -0.000000000000000000e+00
-9.780944385000000807e+01 0.000000000000000000e+00 -0.000000000000000000e+00
-9.779024385000001018e+01 0.000000000000000000e+00 -0.000000000000000000e+00
-9.777094385000000898e+01 0.000000000000000000e+00 -0.000000000000000000e+00
-9.775164385000000777e+01 0.000000000000000000e+00 -0.000000000000000000e+00
-9.773244385000000989e+01 0.000000000000000000e+00 -0.000000000000000000e+00
-9.771314385000000868e+01 0.000000000000000000e+00 -0.000000000000000000e+00
-9.769384385000000748e+01 0.000000000000000000e+00 -0.000000000000000000e+00
-9.767454385000000627e+01 0.000000000000000000e+00 -0.000000000000000000e+00
-9.765534385000000839e+01 0.000000000000000000e+00 -0.000000000000000000e+00
-9.763604385000000718e+01 0.000000000000000000e+00 -0.000000000000000000e+00
-9.761674385000000598e+01 0.000000000000000000e+00 -0.000000000000000000e+00
-9.759754385000000809e+01 0.000000000000000000e+00 -0.000000000000000000e+00
-9.757824385000000689e+01 0.000000000000000000e+00 -0.000000000000000000e+00
-9.755894385000000568e+01 0.000000000000000000e+00 -0.000000000000000000e+00
-9.753964385000000448e+01 0.000000000000000000e+00 -0.000000000000000000e+00
-9.752044385000000659e+01 0.000000000000000000e+00 -0.000000000000000000e+00
-9.750114385000000539e+01 0.000000000000000000e+00 -0.000000000000000000e+00
-9.748184385000000418e+01 0.000000000000000000e+00 -0.000000000000000000e+00
-9.746264385000000630e+01 0.000000000000000000e+00 -0.000000000000000000e+00
-9.744334385000000509e+01 0.000000000000000000e+00 -0.000000000000000000e+00
-9.742404385000000389e+01 0.000000000000000000e+00 -0.000000000000000000e+00
-9.740474385000000268e+01 0.000000000000000000e+00 -0.000000000000000000e+00
-9.738554385000000480e+01 0.000000000000000000e+00 -0.000000000000000000e+00
-9.736624385000000359e+01 0.000000000000000000e+00 -0.000000000000000000e+00
-9.734694385000000239e+01 0.000000000000000000e+00 -0.000000000000000000e+00
-9.732774385000000450e+01 0.000000000000000000e+00 -0.000000000000000000e+00
-9.730844385000000329e+01 0.000000000000000000e+00 -0.000000000000000000e+00
-9.728914385000000209e+01 0.000000000000000000e+00 -0.000000000000000000e+00
-9.726984385000000088e+01 0.000000000000000000e+00 -0.000000000000000000e+00
-9.725064385000000300e+01 0.000000000000000000e+00 -0.000000000000000000e+00
-9.723134385000000179e+01 0.000000000000000000e+00 -0.000000000000000000e+00
-9.721204385000000059e+01 0.000000000000000000e+00 -0.000000000000000000e+00
-9.719284385000000270e+01 0.000000000000000000e+00 -0.000000000000000000e+00
-9.717354385000000150e+01 0.000000000000000000e+00 -0.000000000000000000e+00
-9.715424385000000029e+01 0.000000000000000000e+00 -0.000000000000000000e+00
-9.713494384999999909e+01 0.000000000000000000e+00 -0.000000000000000000e+00
-9.711574385000000120e+01 0.000000000000000000e+00 -0.000000000000000000e+00
-9.709644385000000000e+01 0.000000000000000000e+00 -0.000000000000000000e+00
-9.707714384999999879e+01 0.000000000000000000e+00 -0.000000000000000000e+00
-9.705794385000000091e+01 0.000000000000000000e+00 -0.000000000000000000e+00
-9.703864384999999970e+01 0.000000000000000000e+00 -0.000000000000000000e+00
-9.701934384999999850e+01 0.000000000000000000e+00 -0.000000000000000000e+00
-9.700004384999999729e+01 0.000000000000000000e+00 -0.000000000000000000e+00
-9.698084384999999941e+01 0.000000000000000000e+00 -0.000000000000000000e+00
-9.696154384999999820e+01 0.000000000000000000e+00 -0.000000000000000000e+00
-9.694224384999999700e+01 0.000000000000000000e+00 -0.000000000000000000e+00
-9.692304384999999911e+01 0.000000000000000000e+00 -0.000000000000000000e+00
-9.690374384999999791e+01 0.000000000000000000e+00 -0.000000000000000000e+00
-9.688444384999999670e+01 0.000000000000000000e+00 -0.000000000000000000e+00
-9.686524384999999882e+01 0.000000000000000000e+00 -0.000000000000000000e+00
-9.684594384999999761e+01 0.000000000000000000e+00 -0.000000000000000000e+00
-9.682664385000001062e+01 0.000000000000000000e+00 -0.000000000000000000e+00
-9.680734385000000941e+01 0.000000000000000000e+00 -0.000000000000000000e+00
-9.678814384999999731e+01 0.000000000000000000e+00 -0.000000000000000000e+00
-9.676884385000001032e+01 0.000000000000000000e+00 -0.000000000000000000e+00
-9.674954385000000912e+01 0.000000000000000000e+00 -0.000000000000000000e+00
-9.673034384999999702e+01 0.000000000000000000e+00 -0.000000000000000000e+00
-9.671104385000001002e+01 0.000000000000000000e+00 -0.000000000000000000e+00
-9.669174385000000882e+01 0.000000000000000000e+00 -0.000000000000000000e+00
-9.667244385000000761e+01 0.000000000000000000e+00 -0.000000000000000000e+00
-9.665324385000000973e+01 0.000000000000000000e+00 -0.000000000000000000e+00
-9.663394385000000852e+01 0.000000000000000000e+00 -0.000000000000000000e+00
-9.661464385000000732e+01 0.000000000000000000e+00 -0.000000000000000000e+00
-9.659544385000000943e+01 0.000000000000000000e+00 -0.000000000000000000e+00
-9.657614385000000823e+01 0.000000000000000000e+00 -0.000000000000000000e+00
-9.655684385000000702e+01 0.000000000000000000e+00 -0.000000000000000000e+00
-9.653754385000000582e+01 0.000000000000000000e+00 -0.000000000000000000e+00
-9.651834385000000793e+01 0.000000000000000000e+00 -0.000000000000000000e+00
-9.649904385000000673e+01 0.000000000000000000e+00 -0.000000000000000000e+00
-9.647974385000000552e+01 0.000000000000000000e+00 -0.000000000000000000e+00
-9.646054385000000764e+01 0.000000000000000000e+00 -0.000000000000000000e+00
-9.644124385000000643e+01 0.000000000000000000e+00 -0.000000000000000000e+00
-9.642194385000000523e+01 0.000000000000000000e+00 -0.000000000000000000e+00
-9.640264385000000402e+01 0.000000000000000000e+00 -0.000000000000000000e+00
-9.638344385000000614e+01 0.000000000000000000e+00 -0.000000000000000000e+00
-9.636414385000000493e+01 0.000000000000000000e+00 -0.000000000000000000e+00
-9.634484385000000373e+01 0.000000000000000000e+00 -0.000000000000000000e+00
-9.632564385000000584e+01 0.000000000000000000e+00 -0.000000000000000000e+00
-9.630634385000000464e+01 0.000000000000000000e+00 -0.000000000000000000e+00
-9.628704385000000343e+01 0.000000000000000000e+00 -0.000000000000000000e+00
-9.626774385000000223e+01 0.000000000000000000e+00 -0.000000000000000000e+00
-9.624854385000000434e+01 0.000000000000000000e+00 -0.000000000000000000e+00
-9.622924385000000314e+01 0.000000000000000000e+00 -0.000000000000000000e+00
-9.620994385000000193e+01 0.000000000000000000e+00 -0.000000000000000000e+00
-9.619074385000000404e+01 0.000000000000000000e+00 -0.000000000000000000e+00
-9.617144385000000284e+01 0.000000000000000000e+00 -0.000000000000000000e+00
-9.615214385000000163e+01 0.000000000000000000e+00 -0.000000000000000000e+00
-9.613284385000000043e+01 0.000000000000000000e+00 -0.000000000000000000e+00
-9.611364385000000254e+01 0.000000000000000000e+00 -0.000000000000000000e+00
-9.609434385000000134e+01 0.000000000000000000e+00 -0.000000000000000000e+00
-9.607504385000000013e+01 0.000000000000000000e+00 -0.000000000000000000e+00
-9.605584385000000225e+01 0.000000000000000000e+00 -0.000000000000000000e+00
-9.603654385000000104e+01 0.000000000000000000e+00 -0.000000000000000000e+00
-9.601724384999999984e+01 0.000000000000000000e+00 -0.000000000000000000e+00
-9.599804385000000195e+01 0.000000000000000000e+00 -0.000000000000000000e+00
-9.597874385000000075e+01 0.000000000000000000e+00 -0.000000000000000000e+00
-9.595944384999999954e+01 0.000000000000000000e+00 -0.000000000000000000e+00
-9.594014384999999834e+01 0.000000000000000000e+00 -0.000000000000000000e+00
-9.592094385000000045e+01 0.000000000000000000e+00 -0.000000000000000000e+00
-9.590164384999999925e+01 0.000000000000000000e+00 -0.000000000000000000e+00
-9.588234384999999804e+01 0.000000000000000000e+00 -0.000000000000000000e+00
-9.586314385000000016e+01 0.000000000000000000e+00 -0.000000000000000000e+00
-9.584384384999999895e+01 0.000000000000000000e+00 -0.000000000000000000e+00
-9.582454384999999775e+01 0.000000000000000000e+00 -0.000000000000000000e+00
-9.580524384999999654e+01 0.000000000000000000e+00 -0.000000000000000000e+00
-9.578604384999999866e+01 0.000000000000000000e+00 -0.000000000000000000e+00
-9.576674384999999745e+01 0.000000000000000000e+00 -0.000000000000000000e+00
-9.574744385000001046e+01 0.000000000000000000e+00 -0.000000000000000000e+00
-9.572824384999999836e+01 0.000000000000000000e+00 -0.000000000000000000e+00
-9.570894384999999716e+01 0.000000000000000000e+00 -0.000000000000000000e+00
-9.568964385000001016e+01 0.000000000000000000e+00 -0.000000000000000000e+00
-9.567034385000000896e+01 0.000000000000000000e+00 -0.000000000000000000e+00
-9.565114384999999686e+01 0.000000000000000000e+00 -0.000000000000000000e+00
-9.563184385000000987e+01 0.000000000000000000e+00 -0.000000000000000000e+00
-9.561254385000000866e+01 0.000000000000000000e+00 -0.000000000000000000e+00
-9.559334384999999656e+01 0.000000000000000000e+00 -0.000000000000000000e+00
-9.557404385000000957e+01 0.000000000000000000e+00 -0.000000000000000000e+00
-9.555474385000000836e+01 0.000000000000000000e+00 -0.000000000000000000e+00
-9.553544385000000716e+01 0.000000000000000000e+00 -0.000000000000000000e+00
-9.551624385000000927e+01 0.000000000000000000e+00 -0.000000000000000000e+00
-9.549694385000000807e+01 0.000000000000000000e+00 -0.000000000000000000e+00
-9.547764385000000686e+01 0.000000000000000000e+00 -0.000000000000000000e+00
-9.545844385000000898e+01 0.000000000000000000e+00 -0.000000000000000000e+00
-9.543914385000000777e+01 0.000000000000000000e+00 -0.000000000000000000e+00
-9.541984385000000657e+01 0.000000000000000000e+00 -0.000000000000000000e+00
-9.540054385000000536e+01 0.000000000000000000e+00 -0.000000000000000000e+00
-9.538134385000000748e+01 0.000000000000000000e+00 -0.000000000000000000e+00
-9.536204385000000627e+01 0.000000000000000000e+00 -0.000000000000000000e+00
-9.534274385000000507e+01 0.000000000000000000e+00 -0.000000000000000000e+00
-9.532354385000000718e+01 0.000000000000000000e+00 -0.000000000000000000e+00
-9.530424385000000598e+01 0.000000000000000000e+00 -0.000000000000000000e+00
-9.528494385000000477e+01 0.000000000000000000e+00 -0.000000000000000000e+00
-9.526564385000000357e+01 0.000000000000000000e+00 -0.000000000000000000e+00
-9.524644385000000568e+01 0.000000000000000000e+00 -0.000000000000000000e+00
-9.522714385000000448e+01 0.000000000000000000e+00 -0.000000000000000000e+00
-9.520784385000000327e+01 0.000000000000000000e+00 -0.000000000000000000e+00
-9.518864385000000539e+01 0.000000000000000000e+00 -0.000000000000000000e+00
-9.516934385000000418e+01 0.000000000000000000e+00 -0.000000000000000000e+00
-9.515004385000000298e+01 0.000000000000000000e+00 -0.000000000000000000e+00
-9.513074385000000177e+01 0.000000000000000000e+00 -0.000000000000000000e+00
-9.511154385000000389e+01 0.000000000000000000e+00 -0.000000000000000000e+00
-9.509224385000000268e+01 0.000000000000000000e+00 -0.000000000000000000e+00
-9.507294385000000148e+01 0.000000000000000000e+00 -0.000000000000000000e+00
-9.505374385000000359e+01 0.000000000000000000e+00 -0.000000000000000000e+00
-9.503444385000000239e+01 0.000000000000000000e+00 -0.000000000000000000e+00
-9.501514385000000118e+01 0.000000000000000000e+00 -0.000000000000000000e+00
-9.499594385000000329e+01 0.000000000000000000e+00 -0.000000000000000000e+00
-9.497664385000000209e+01 0.000000000000000000e+00 -0.000000000000000000e+00
-9.495734385000000088e+01 0.000000000000000000e+00 -0.000000000000000000e+00
-9.493804384999999968e+01 0.000000000000000000e+00 -0.000000000000000000e+00
-9.491884385000000179e+01 0.000000000000000000e+00 -0.000000000000000000e+00
-9.489954385000000059e+01 0.000000000000000000e+00 -0.000000000000000000e+00
-9.488024384999999938e+01 0.000000000000000000e+00 -0.000000000000000000e+00
-9.486104385000000150e+01 0.000000000000000000e+00 -0.000000000000000000e+00
-9.484174385000000029e+01 0.000000000000000000e+00 -0.000000000000000000e+00
-9.482244384999999909e+01 0.000000000000000000e+00 -0.000000000000000000e+00
-9.480314384999999788e+01 0.000000000000000000e+00 -0.000000000000000000e+00
-9.478394385000000000e+01 0.000000000000000000e+00 -0.000000000000000000e+00
-9.476464384999999879e+01 0.000000000000000000e+00 -0.000000000000000000e+00
-9.474534384999999759e+01 0.000000000000000000e+00 -0.000000000000000000e+00
-9.472614384999999970e+01 0.000000000000000000e+00 -0.000000000000000000e+00
-9.470684384999999850e+01 0.000000000000000000e+00 -0.000000000000000000e+00
-9.468754384999999729e+01 0.000000000000000000e+00 -0.000000000000000000e+00
-9.466824385000001030e+01 0.000000000000000000e+00 -0.000000000000000000e+00
-9.464904384999999820e+01 0.000000000000000000e+00 -0.000000000000000000e+00
-9.462974384999999700e+01 0.000000000000000000e+00 -0.000000000000000000e+00
-9.461044385000001000e+01 0.000000000000000000e+00 -0.000000000000000000e+00
-9.459124384999999791e+01 0.000000000000000000e+00 -0.000000000000000000e+00
-9.457194384999999670e+01 0.000000000000000000e+00 -0.000000000000000000e+00
-9.455264385000000971e+01 0.000000000000000000e+00 -0.000000000000000000e+00
-9.453334385000000850e+01 0.000000000000000000e+00 -0.000000000000000000e+00
-9.451414385000001062e+01 0.000000000000000000e+00 -0.000000000000000000e+00
-9.449484385000000941e+01 0.000000000000000000e+00 -0.000000000000000000e+00
-9.447554385000000821e+01 0.000000000000000000e+00 -0.000000000000000000e+00
-9.445634385000001032e+01 2.000000000000000096e-04 -0.000000000000000000e+00
-9.443704385000000912e+01 2.700000000000000143e-03 -0.000000000000000000e+00
-9.441774385000000791e+01 2.639999999999999986e-02 -0.000000000000000000e+00
-9.439844385000000671e+01 1.927000000000000102e-01 -0.000000000000000000e+00
-9.437924385000000882e+01 1.050799999999999956e+00 -0.000000000000000000e+00
-9.435994385000000761e+01 4.287300000000000111e+00 -0.000000000000000000e+00
-9.434064385000000641e+01 1.309070000000000000e+01 -0.000000000000000000e+00
-9.432144385000000852e+01 2.991959999999999908e+01 -0.000000000000000000e+00
-9.430214385000000732e+01 5.119659999999999656e+01 -0.000000000000000000e+00
-9.428284385000000611e+01 6.559420000000000073e+01 -0.000000000000000000e+00
-9.426354385000000491e+01 6.292920000000000158e+01 -0.000000000000000000e+00
-9.424434385000000702e+01 4.520620000000000260e+01 -0.000000000000000000e+00
-9.422504385000000582e+01 2.431480000000000175e+01 -0.000000000000000000e+00
-9.420574385000000461e+01 9.790699999999999292e+00 -0.000000000000000000e+00
-9.418654385000000673e+01 2.950899999999999856e+00 -0.000000000000000000e+00
-9.416724385000000552e+01 6.654999999999999805e-01 -0.000000000000000000e+00
-9.414794385000000432e+01 1.122999999999999970e-01 -0.000000000000000000e+00
-9.412874385000000643e+01 1.420000000000000082e-02 -6.999999999999999929e-04
-9.410944385000000523e+01 1.299999999999999940e-03 -8.399999999999999481e-03
-9.409014385000000402e+01 1.000000000000000048e-04 -7.159999999999999698e-02
-9.407084385000000282e+01 0.000000000000000000e+00 -4.535000000000000142e-01
-9.405164385000000493e+01 0.000000000000000000e+00 -2.149399999999999977e+00
-9.403234385000000373e+01 0.000000000000000000e+00 -7.623199999999999754e+00
-9.401304385000000252e+01 0.000000000000000000e+00 -2.023580000000000112e+01
-9.399384385000000464e+01 0.000000000000000000e+00 -4.021280000000000143e+01
-9.397454385000000343e+01 0.000000000000000000e+00 -5.983100000000000307e+01
-9.395524385000000223e+01 0.000000000000000000e+00 -6.665680000000000405e+01
-9.393594385000000102e+01 0.000000000000000000e+00 -5.560699999999999932e+01
-9.391674385000000314e+01 0.000000000000000000e+00 -3.473469999999999658e+01
-9.389744385000000193e+01 0.000000000000000000e+00 -1.624439999999999884e+01
-9.387814385000000073e+01 0.000000000000000000e+00 -5.687000000000000277e+00
-9.385894385000000284e+01 0.000000000000000000e+00 -1.490099999999999980e+00
-9.383964385000000163e+01 0.000000000000000000e+00 -2.921000000000000263e-01
-9.382034385000000043e+01 0.000000000000000000e+00 -4.279999999999999777e-02
-9.380104384999999922e+01 0.000000000000000000e+00 -4.700000000000000185e-03
-9.378184385000000134e+01 0.000000000000000000e+00 -4.000000000000000192e-04
-9.376254385000000013e+01 0.000000000000000000e+00 -0.000000000000000000e+00
-9.374324384999999893e+01 0.000000000000000000e+00 -0.000000000000000000e+00
-9.372404385000000104e+01 0.000000000000000000e+00 -0.000000000000000000e+00
-9.370474384999999984e+01 0.000000000000000000e+00 -0.000000000000000000e+00
-9.368544384999999863e+01 0.000000000000000000e+00 -4.000000000000000192e-04
-9.366614384999999743e+01 0.000000000000000000e+00 -4.599999999999999922e-03
-9.364694384999999954e+01 0.000000000000000000e+00 -4.189999999999999974e-02
-9.362764384999999834e+01 1.000000000000000048e-04 -2.867999999999999994e-01
-9.360834384999999713e+01 2.200000000000000133e-03 -1.469300000000000050e+00
-9.358914384999999925e+01 2.520000000000000018e-02 -5.635500000000000398e+00
-9.356984384999999804e+01 2.132000000000000006e-01 -1.621790000000000020e+01
-9.355054384999999684e+01 1.354100000000000081e+00 -3.526610000000000156e+01
-9.353124385000000984e+01 6.474199999999999733e+00 -5.925379999999999825e+01
-9.351204384999999775e+01 2.334929999999999950e+01 -8.206780000000000541e+01
-9.349274384999999654e+01 6.371430000000000149e+01 -1.074322999999999979e+02
-9.347344385000000955e+01 1.321311000000000035e+02 -1.506068999999999960e+02
-9.345424384999999745e+01 2.097391000000000076e+02 -2.132795000000000130e+02
-9.343494385000001046e+01 2.581526999999999816e+02 -2.623650000000000091e+02
-9.341564385000000925e+01 2.528148999999999944e+02 -2.559644000000000119e+02
-9.339634385000000805e+01 2.071578000000000088e+02 -1.915091999999999928e+02
-9.337714385000001016e+01 1.532924999999999898e+02 -1.087789999999999964e+02
-9.335784385000000896e+01 1.085027000000000044e+02 -4.678009999999999735e+01
-9.333854385000000775e+01 7.170109999999999673e+01 -1.522059999999999924e+01
-9.331934385000000987e+01 4.077969999999999828e+01 -3.745600000000000041e+00
-9.330004385000000866e+01 1.861019999999999897e+01 -6.968999999999999639e-01
-9.328074385000000746e+01 6.555699999999999861e+00 -9.800000000000000377e-02
-9.326144385000000625e+01 1.750999999999999890e+00 -1.039999999999999952e-02
-9.324224385000000836e+01 3.518000000000000016e-01 -8.000000000000000383e-04
-9.322294385000000716e+01 5.299999999999999850e-02 -1.000000000000000048e-04
-9.320364385000000595e+01 6.000000000000000125e-03 -0.000000000000000000e+00
-9.318444385000000807e+01 5.000000000000000104e-04 -0.000000000000000000e+00
-9.316514385000000686e+01 0.000000000000000000e+00 -0.000000000000000000e+00
-9.314584385000000566e+01 0.000000000000000000e+00 -0.000000000000000000e+00
-9.312664385000000777e+01 0.000000000000000000e+00 -0.000000000000000000e+00
-9.310734385000000657e+01 0.000000000000000000e+00 -0.000000000000000000e+00
-9.308804385000000536e+01 0.000000000000000000e+00 -0.000000000000000000e+00
-9.306874385000000416e+01 0.000000000000000000e+00 -0.000000000000000000e+00
-9.304954385000000627e+01 0.000000000000000000e+00 -0.000000000000000000e+00
-9.303024385000000507e+01 0.000000000000000000e+00 -0.000000000000000000e+00
-9.301094385000000386e+01 0.000000000000000000e+00 -0.000000000000000000e+00
-9.299174385000000598e+01 0.000000000000000000e+00 -0.000000000000000000e+00
-9.297244385000000477e+01 0.000000000000000000e+00 -0.000000000000000000e+00
-9.295314385000000357e+01 0.000000000000000000e+00 -0.000000000000000000e+00
-9.293384385000000236e+01 0.000000000000000000e+00 -0.000000000000000000e+00
-9.291464385000000448e+01 0.000000000000000000e+00 -0.000000000000000000e+00
-9.289534385000000327e+01 0.000000000000000000e+00 -0.000000000000000000e+00
-9.287604385000000207e+01 0.000000000000000000e+00 -0.000000000000000000e+00
-9.285684385000000418e+01 0.000000000000000000e+00 -0.000000000000000000e+00
-9.283754385000000298e+01 0.000000000000000000e+00 -0.000000000000000000e+00
-9.281824385000000177e+01 0.000000000000000000e+00 -0.000000000000000000e+00
-9.279894385000000057e+01 0.000000000000000000e+00 -0.000000000000000000e+00
-9.277974385000000268e+01 0.000000000000000000e+00 -0.000000000000000000e+00
-9.276044385000000148e+01 0.000000000000000000e+00 -0.000000000000000000e+00
-9.274114385000000027e+01 0.000000000000000000e+00 -0.000000000000000000e+00
-9.272194385000000239e+01 0.000000000000000000e+00 -0.000000000000000000e+00
-9.270264385000000118e+01 0.000000000000000000e+00 -0.000000000000000000e+00
-9.268334384999999997e+01 0.000000000000000000e+00 -0.000000000000000000e+00
-9.266404384999999877e+01 0.000000000000000000e+00 -0.000000000000000000e+00
-9.264484385000000088e+01 0.000000000000000000e+00 -0.000000000000000000e+00
-9.262554384999999968e+01 0.000000000000000000e+00 -0.000000000000000000e+00
-9.260624384999999847e+01 0.000000000000000000e+00 -0.000000000000000000e+00
-9.258704385000000059e+01 0.000000000000000000e+00 -0.000000000000000000e+00
-9.256774384999999938e+01 0.000000000000000000e+00 -0.000000000000000000e+00
-9.254844384999999818e+01 0.000000000000000000e+00 -0.000000000000000000e+00
-9.252914384999999697e+01 0.000000000000000000e+00 -0.000000000000000000e+00
-9.250994384999999909e+01 0.000000000000000000e+00 -0.000000000000000000e+00
-9.249064384999999788e+01 0.000000000000000000e+00 -0.000000000000000000e+00
-9.247134384999999668e+01 0.000000000000000000e+00 -0.000000000000000000e+00
-9.245214384999999879e+01 0.000000000000000000e+00 -0.000000000000000000e+00
-9.243284384999999759e+01 0.000000000000000000e+00 -0.000000000000000000e+00
-9.241354385000001059e+01 0.000000000000000000e+00 -0.000000000000000000e+00
-9.239424385000000939e+01 0.000000000000000000e+00 -0.000000000000000000e+00
-9.237504384999999729e+01 0.000000000000000000e+00 -0.000000000000000000e+00
-9.235574385000001030e+01 0.000000000000000000e+00 -0.000000000000000000e+00
-9.233644385000000909e+01 0.000000000000000000e+00 -0.000000000000000000e+00
-9.231724384999999700e+01 0.000000000000000000e+00 -0.000000000000000000e+00
-9.229794385000001000e+01 0.000000000000000000e+00 -0.000000000000000000e+00
-9.227864385000000880e+01 0.000000000000000000e+00 -0.000000000000000000e+00
-9.225944384999999670e+01 0.000000000000000000e+00 -0.000000000000000000e+00
-9.224014385000000971e+01 0.000000000000000000e+00 -0.000000000000000000e+00
-9.222084385000000850e+01 0.000000000000000000e+00 -0.000000000000000000e+00
-9.220154385000000730e+01 0.000000000000000000e+00 -0.000000000000000000e+00
-9.218234385000000941e+01 0.000000000000000000e+00 -0.000000000000000000e+00
-9.216304385000000821e+01 0.000000000000000000e+00 -0.000000000000000000e+00
-9.214374385000000700e+01 0.000000000000000000e+00 -0.000000000000000000e+00
-9.212454385000000912e+01 0.000000000000000000e+00 -0.000000000000000000e+00
-9.210524385000000791e+01 0.000000000000000000e+00 -0.000000000000000000e+00
-9.208594385000000671e+01 0.000000000000000000e+00 -0.000000000000000000e+00
-9.206664385000000550e+01 0.000000000000000000e+00 -0.000000000000000000e+00