       N       E                     dE             d eps       ncg     rms          rms(c)
DAV:   1     0.141151531698E+05    0.14115E+05   -0.62046E+05 24592   0.133E+03
DAV:   2     0.383403622572E+03   -0.13732E+05   -0.13026E+05 28096   0.558E+02
DAV:   3    -0.101084443269E+04   -0.13942E+04   -0.13580E+04 24944   0.159E+02
DAV:   4    -0.106756134272E+04   -0.56717E+02   -0.55310E+02 28832   0.397E+01
DAV:   5    -0.106928657103E+04   -0.17252E+01   -0.16985E+01 27088   0.617E+00
DAV:   6    -0.106935976674E+04   -0.73196E-01   -0.72914E-01 28784   0.139E+00
DAV:   7    -0.106936308559E+04   -0.33188E-02   -0.33142E-02 26720   0.246E-01
DAV:   8    -0.106936328158E+04   -0.19600E-03   -0.19583E-03 24144   0.601E-02    0.340E+02
DAV:   9    -0.657049685178E+03    0.41231E+03   -0.15294E+03 25984   0.599E+01    0.253E+02
DAV:  10    -0.623762743463E+03    0.33287E+02   -0.20732E+02 26000   0.312E+01    0.141E+02
DAV:  11    -0.588287349961E+03    0.35475E+02   -0.84802E+01 25120   0.156E+01    0.546E+01
DAV:  12    -0.558705449916E+03    0.29582E+02   -0.69001E+01 27840   0.164E+01    0.513E+01
DAV:  13    -0.540697417578E+03    0.18008E+02   -0.36696E+01 25968   0.963E+00    0.294E+01
DAV:  14    -0.571127044462E+03   -0.30430E+02   -0.45860E+00 22608   0.341E+00    0.256E+01
DAV:  15    -0.612413861648E+03   -0.41287E+02   -0.85086E+00 25104   0.406E+00    0.236E+01
DAV:  16    -0.646393496146E+03   -0.33980E+02   -0.75925E+00 23552   0.377E+00    0.227E+01
DAV:  17    -0.648329705190E+03   -0.19362E+01   -0.64626E-01 23440   0.137E+00    0.220E+01
DAV:  18    -0.673850865384E+03   -0.25521E+02   -0.45549E+00 24608   0.253E+00    0.216E+01
DAV:  19    -0.735935735278E+03   -0.62085E+02   -0.29923E+01 24192   0.591E+00    0.197E+01
DAV:  20    -0.811489446133E+03   -0.75554E+02   -0.61311E+01 24064   0.782E+00    0.187E+01
DAV:  21    -0.844977364479E+03   -0.33488E+02   -0.31152E+01 24400   0.536E+00    0.159E+01
DAV:  22    -0.862835201675E+03   -0.17858E+02   -0.14683E+01 23664   0.414E+00    0.110E+01
DAV:  23    -0.877427799532E+03   -0.14593E+02   -0.11503E+01 22400   0.333E+00    0.863E+00
DAV:  24    -0.879593612197E+03   -0.21658E+01   -0.14849E+00 24240   0.172E+00    0.627E+00
DAV:  25    -0.881388235769E+03   -0.17946E+01   -0.62827E-01 24048   0.108E+00    0.539E+00
DAV:  26    -0.882323606978E+03   -0.93537E+00   -0.45694E-01 22704   0.100E+00    0.440E+00
DAV:  27    -0.882983626748E+03   -0.66002E+00   -0.26948E-01 23776   0.870E-01    0.335E+00
DAV:  28    -0.883835750306E+03   -0.85212E+00   -0.13423E-01 22048   0.611E-01    0.248E+00
DAV:  29    -0.885256352787E+03   -0.14206E+01   -0.18953E-01 22000   0.682E-01    0.214E+00
DAV:  30    -0.889144795777E+03   -0.38884E+01   -0.72712E-02 22944   0.436E-01    0.144E+00
DAV:  31    -0.890022053396E+03   -0.87726E+00   -0.21979E-02 23024   0.266E-01    0.964E-01
DAV:  32    -0.890136488084E+03   -0.11443E+00   -0.11743E-02 23760   0.175E-01    0.759E-01
DAV:  33    -0.890216086964E+03   -0.79599E-01   -0.62399E-03 24032   0.133E-01    0.625E-01
DAV:  34    -0.890469515209E+03   -0.25343E+00   -0.89612E-03 22704   0.121E-01    0.496E-01
DAV:  35    -0.890718545936E+03   -0.24903E+00   -0.10639E-02 23440   0.114E-01    0.465E-01
DAV:  36    -0.890948654411E+03   -0.23011E+00   -0.19257E-02 22944   0.131E-01    0.303E-01
DAV:  37    -0.891037563525E+03   -0.88909E-01   -0.61352E-03 22160   0.117E-01    0.287E-01
DAV:  38    -0.891063276268E+03   -0.25713E-01   -0.18464E-03 22448   0.635E-02    0.219E-01
DAV:  39    -0.891110180363E+03   -0.46904E-01   -0.49923E-04 20064   0.390E-02    0.195E-01
DAV:  40    -0.891189416490E+03   -0.79236E-01   -0.74657E-04 19968   0.474E-02    0.178E-01
DAV:  41    -0.891261821119E+03   -0.72405E-01   -0.24347E-04 18080   0.302E-02    0.158E-01
DAV:  42    -0.891359656698E+03   -0.97836E-01   -0.31181E-04 18864   0.294E-02    0.145E-01
DAV:  43    -0.891564341327E+03   -0.20468E+00   -0.22086E-03 21600   0.775E-02    0.151E-01
DAV:  44    -0.891646125587E+03   -0.81784E-01   -0.39035E-04 20816   0.348E-02    0.104E-01
DAV:  45    -0.891812337235E+03   -0.16621E+00   -0.91263E-04 20960   0.568E-02    0.840E-02
DAV:  46    -0.891891007862E+03   -0.78671E-01   -0.50493E-04 20224   0.425E-02    0.558E-02
DAV:  47    -0.891915314138E+03   -0.24306E-01   -0.16245E-04 16352   0.245E-02    0.398E-02
DAV:  48    -0.891922178316E+03   -0.68642E-02   -0.50227E-05 14848   0.155E-02    0.276E-02
DAV:  49    -0.891924600537E+03   -0.24222E-02   -0.37475E-05 14784   0.128E-02    0.223E-02
DAV:  50    -0.891926999026E+03   -0.23985E-02   -0.31452E-05 14256   0.125E-02    0.187E-02
DAV:  51    -0.891930372904E+03   -0.33739E-02   -0.43653E-05 14416   0.119E-02    0.159E-02
DAV:  52    -0.891932478924E+03   -0.21060E-02   -0.12850E-05 14112   0.827E-03    0.150E-02
DAV:  53    -0.891934871001E+03   -0.23921E-02   -0.17359E-05 13952   0.898E-03    0.126E-02
DAV:  54    -0.891937283307E+03   -0.24123E-02   -0.11626E-05 14496   0.762E-03    0.122E-02
DAV:  55    -0.891938478432E+03   -0.11951E-02   -0.10104E-05 14288   0.647E-03    0.969E-03
DAV:  56    -0.891939432968E+03   -0.95454E-03   -0.82063E-06 14448   0.567E-03    0.820E-03
DAV:  57    -0.891940059158E+03   -0.62619E-03   -0.86827E-06 14112   0.553E-03    0.702E-03
DAV:  58    -0.891940689622E+03   -0.63046E-03   -0.11722E-05 13744   0.610E-03    0.604E-03
DAV:  59    -0.891941065823E+03   -0.37620E-03   -0.77397E-06 14528   0.513E-03    0.484E-03
DAV:  60    -0.891941283623E+03   -0.21780E-03   -0.46902E-06 14048   0.379E-03    0.345E-03
DAV:  61    -0.891941389181E+03   -0.10556E-03   -0.26281E-06 14224   0.285E-03    0.229E-03
DAV:  62    -0.891941444992E+03   -0.55811E-04   -0.14546E-06 14496   0.196E-03
   1 F= -.89194144E+03 E0= -.89189783E+03  d E =-.891941E+03  mag=    -0.0004
       N       E                     dE             d eps       ncg     rms          rms(c)
DAV:   1    -0.891932925507E+03    0.84637E-02   -0.24895E+00 21696   0.294E+00    0.818E-01
DAV:   2    -0.891940414229E+03   -0.74887E-02   -0.86942E-02 24128   0.454E-01    0.565E-01
DAV:   3    -0.891941326225E+03   -0.91200E-03   -0.92154E-03 28784   0.167E-01    0.518E-01
DAV:   4    -0.891940910471E+03    0.41575E-03   -0.10209E-02 27344   0.163E-01    0.488E-01
DAV:   5    -0.891940639881E+03    0.27059E-03   -0.64461E-03 22704   0.117E-01    0.344E-01
DAV:   6    -0.891940118811E+03    0.52107E-03   -0.22662E-03 20656   0.751E-02    0.980E-02
DAV:   7    -0.891940144191E+03   -0.25380E-04   -0.35622E-04 14320   0.331E-02
   2 F= -.89194014E+03 E0= -.89189636E+03  d E =0.130080E-02  mag=    -0.0003
       N       E                     dE             d eps       ncg     rms          rms(c)
DAV:   1    -0.891941251085E+03   -0.11323E-02   -0.79749E-01 21504   0.167E+00    0.456E-01
DAV:   2    -0.891943723300E+03   -0.24722E-02   -0.28140E-02 23952   0.259E-01    0.361E-01
DAV:   3    -0.891944007764E+03   -0.28446E-03   -0.45908E-03 27424   0.107E-01    0.322E-01
DAV:   4    -0.891943776945E+03    0.23082E-03   -0.48456E-03 20096   0.101E-01    0.279E-01
DAV:   5    -0.891943701500E+03    0.75445E-04   -0.21872E-03 15408   0.674E-02    0.202E-01
DAV:   6    -0.891943535160E+03    0.16634E-03   -0.60276E-04 14432   0.453E-02    0.446E-02
DAV:   7    -0.891943553272E+03   -0.18111E-04   -0.80002E-05 14208   0.192E-02
   3 F= -.89194355E+03 E0= -.89189981E+03  d E =-.210828E-02  mag=    -0.0003
       N       E                     dE             d eps       ncg     rms          rms(c)
DAV:   1    -0.891942718338E+03    0.81682E-03   -0.55830E-01 21024   0.150E+00    0.360E-01
DAV:   2    -0.891944844510E+03   -0.21262E-02   -0.23477E-02 21120   0.245E-01    0.335E-01
DAV:   3    -0.891944907664E+03   -0.63154E-04   -0.27952E-03 23040   0.935E-02    0.235E-01
DAV:   4    -0.891944882271E+03    0.25393E-04   -0.25030E-03 16240   0.775E-02    0.243E-01
DAV:   5    -0.891944810175E+03    0.72096E-04   -0.12822E-03 13536   0.539E-02    0.163E-01
DAV:   6    -0.891944739871E+03    0.70303E-04   -0.40632E-04 13616   0.381E-02
   4 F= -.89194474E+03 E0= -.89190100E+03  d E =-.118660E-02  mag=    -0.0003
       N       E                     dE             d eps       ncg     rms          rms(c)
DAV:   1    -0.891942644692E+03    0.21655E-02   -0.62266E-01 20992   0.159E+00    0.389E-01
DAV:   2    -0.891945053605E+03   -0.24089E-02   -0.26708E-02 21136   0.261E-01    0.359E-01
DAV:   3    -0.891945132624E+03   -0.79019E-04   -0.40802E-03 23504   0.102E-01    0.255E-01
DAV:   4    -0.891945082967E+03    0.49657E-04   -0.35887E-03 16960   0.827E-02    0.257E-01
DAV:   5    -0.891944996232E+03    0.86735E-04   -0.15332E-03 13920   0.569E-02    0.174E-01
DAV:   6    -0.891944920294E+03    0.75938E-04   -0.46133E-04 13856   0.380E-02
   5 F= -.89194492E+03 E0= -.89190118E+03  d E =-.136702E-02  mag=    -0.0003
       N       E                     dE             d eps       ncg     rms          rms(c)
DAV:   1    -0.891944979216E+03    0.17016E-04   -0.77370E-02 21056   0.559E-01    0.127E-01
DAV:   2    -0.891945355099E+03   -0.37588E-03   -0.36501E-03 21744   0.968E-02    0.157E-01
DAV:   3    -0.891945306651E+03    0.48447E-04   -0.51563E-04 15168   0.410E-02    0.902E-02
DAV:   4    -0.891945295535E+03    0.11117E-04   -0.16520E-04 13168   0.266E-02    0.521E-02
DAV:   5    -0.891945314903E+03   -0.19368E-04   -0.97043E-05 13680   0.161E-02    0.534E-02
DAV:   6    -0.891945319387E+03   -0.44840E-05   -0.73741E-05 13248   0.138E-02
   6 F= -.89194532E+03 E0= -.89190153E+03  d E =-.399093E-03  mag=    -0.0002
       N       E                     dE             d eps       ncg     rms          rms(c)
DAV:   1    -0.891944079861E+03    0.12350E-02   -0.43513E-01 20816   0.132E+00    0.278E-01
DAV:   2    -0.891945834603E+03   -0.17547E-02   -0.19234E-02 21120   0.217E-01    0.240E-01
DAV:   3    -0.891945909045E+03   -0.74442E-04   -0.16843E-03 20544   0.714E-02    0.183E-01
DAV:   4    -0.891945856595E+03    0.52450E-04   -0.13553E-03 14608   0.576E-02    0.166E-01
DAV:   5    -0.891945850021E+03    0.65745E-05   -0.62007E-04 13248   0.385E-02    0.120E-01
DAV:   6    -0.891945819863E+03    0.30158E-04   -0.22607E-04 13536   0.295E-02
   7 F= -.89194582E+03 E0= -.89190206E+03  d E =-.899569E-03  mag=    -0.0002
       N       E                     dE             d eps       ncg     rms          rms(c)
DAV:   1    -0.891938356670E+03    0.74934E-02   -0.17410E+00 20656   0.265E+00    0.561E-01
DAV:   2    -0.891945228926E+03   -0.68723E-02   -0.75950E-02 21184   0.431E-01    0.408E-01
DAV:   3    -0.891945527503E+03   -0.29858E-03   -0.48838E-03 25984   0.122E-01    0.315E-01
DAV:   4    -0.891945460944E+03    0.66559E-04   -0.47152E-03 21568   0.101E-01    0.326E-01
DAV:   5    -0.891945446960E+03    0.13984E-04   -0.28668E-03 15648   0.770E-02    0.245E-01
DAV:   6    -0.891945222790E+03    0.22417E-03   -0.10256E-03 16768   0.547E-02    0.494E-02
DAV:   7    -0.891945236953E+03   -0.14163E-04   -0.13999E-04 14096   0.216E-02
   8 F= -.89194524E+03 E0= -.89190147E+03  d E =-.316659E-03  mag=    -0.0002
       N       E                     dE             d eps       ncg     rms          rms(c)
DAV:   1    -0.891942341083E+03    0.28817E-02   -0.91848E-01 20656   0.192E+00    0.399E-01
DAV:   2    -0.891945991021E+03   -0.36499E-02   -0.40072E-02 21264   0.314E-01    0.327E-01
DAV:   3    -0.891946138268E+03   -0.14725E-03   -0.30005E-03 24656   0.100E-01    0.260E-01
DAV:   4    -0.891946001403E+03    0.13686E-03   -0.23884E-03 16640   0.765E-02    0.227E-01
DAV:   5    -0.891946025163E+03   -0.23759E-04   -0.11938E-03 13552   0.541E-02    0.174E-01
DAV:   6    -0.891945935872E+03    0.89291E-04   -0.51048E-04 14384   0.429E-02
   9 F= -.89194594E+03 E0= -.89190215E+03  d E =-.101558E-02  mag=    -0.0002
       N       E                     dE             d eps       ncg     rms          rms(c)
DAV:   1    -0.891945865605E+03    0.15956E-03   -0.22527E-02 21312   0.304E-01    0.784E-02
DAV:   2    -0.891946004451E+03   -0.13885E-03   -0.12697E-03 21568   0.567E-02    0.117E-01
DAV:   3    -0.891945962620E+03    0.41830E-04   -0.33282E-04 13264   0.284E-02    0.473E-02
DAV:   4    -0.891945965651E+03   -0.30312E-05   -0.59275E-05 13232   0.147E-02    0.270E-02
DAV:   5    -0.891945976597E+03   -0.10946E-04   -0.27435E-05 14048   0.860E-03    0.281E-02
DAV:   6    -0.891945986961E+03   -0.10364E-04   -0.19110E-05 13168   0.765E-03
  10 F= -.89194599E+03 E0= -.89190221E+03  d E =-.106667E-02  mag=    -0.0002
       N       E                     dE             d eps       ncg     rms          rms(c)
DAV:   1    -0.891946331647E+03   -0.35505E-03   -0.33022E-02 20976   0.364E-01    0.970E-02
DAV:   2    -0.891946505542E+03   -0.17390E-03   -0.17279E-03 21840   0.654E-02    0.101E-01
DAV:   3    -0.891946499522E+03    0.60200E-05   -0.22085E-04 13760   0.264E-02    0.620E-02
DAV:   4    -0.891946509076E+03   -0.95534E-05   -0.21001E-04 13280   0.243E-02    0.711E-02
DAV:   5    -0.891946506247E+03    0.28285E-05   -0.10919E-04 12944   0.158E-02    0.478E-02
DAV:   6    -0.891946509301E+03   -0.30533E-05   -0.33673E-05 13248   0.112E-02
  11 F= -.89194651E+03 E0= -.89190273E+03  d E =-.522339E-03  mag=    -0.0002
       N       E                     dE             d eps       ncg     rms          rms(c)
DAV:   1    -0.891946256094E+03    0.25015E-03   -0.29703E-01 20768   0.109E+00    0.290E-01
DAV:   2    -0.891947704534E+03   -0.14484E-02   -0.15279E-02 21968   0.193E-01    0.273E-01
DAV:   3    -0.891947699146E+03    0.53876E-05   -0.14453E-03 23360   0.712E-02    0.180E-01
DAV:   4    -0.891947739082E+03   -0.39935E-04   -0.14402E-03 15600   0.630E-02    0.215E-01
DAV:   5    -0.891947667690E+03    0.71392E-04   -0.83119E-04 13056   0.453E-02    0.140E-01
DAV:   6    -0.891947613533E+03    0.54157E-04   -0.32835E-04 13056   0.332E-02
  12 F= -.89194761E+03 E0= -.89190392E+03  d E =-.162657E-02  mag=    -0.0002
       N       E                     dE             d eps       ncg     rms          rms(c)
DAV:   1    -0.891942728242E+03    0.49394E-02   -0.11868E+00 20688   0.218E+00    0.582E-01
DAV:   2    -0.891948478752E+03   -0.57505E-02   -0.61143E-02 22016   0.386E-01    0.541E-01
DAV:   3    -0.891948478086E+03    0.66587E-06   -0.60725E-03 26880   0.142E-01    0.363E-01
DAV:   4    -0.891948627069E+03   -0.14898E-03   -0.64049E-03 22240   0.125E-01    0.427E-01
DAV:   5    -0.891948296565E+03    0.33050E-03   -0.34693E-03 17648   0.882E-02    0.285E-01
DAV:   6    -0.891948060716E+03    0.23585E-03   -0.12029E-03 15584   0.630E-02    0.894E-02
DAV:   7    -0.891948073128E+03   -0.12411E-04   -0.31497E-04 13216   0.340E-02
  13 F= -.89194807E+03 E0= -.89190440E+03  d E =-.208617E-02  mag=    -0.0001
       N       E                     dE             d eps       ncg     rms          rms(c)
DAV:   1    -0.891947802664E+03    0.25805E-03   -0.84809E-02 20784   0.581E-01    0.154E-01
DAV:   2    -0.891948234595E+03   -0.43193E-03   -0.43949E-03 21808   0.104E-01    0.159E-01
DAV:   3    -0.891948214432E+03    0.20163E-04   -0.66897E-04 15008   0.436E-02    0.109E-01
DAV:   4    -0.891948209665E+03    0.47669E-05   -0.50292E-04 13104   0.361E-02    0.963E-02
DAV:   5    -0.891948205173E+03    0.44917E-05   -0.25635E-04 12768   0.246E-02    0.748E-02
DAV:   6    -0.891948199860E+03    0.53132E-05   -0.88429E-05 12736   0.189E-02
  14 F= -.89194820E+03 E0= -.89190458E+03  d E =-.221290E-02  mag=    -0.0001
       N       E                     dE             d eps       ncg     rms          rms(c)
DAV:   1    -0.891948452949E+03   -0.24778E-03   -0.40920E-02 20848   0.405E-01    0.893E-02
DAV:   2    -0.891948634522E+03   -0.18157E-03   -0.18723E-03 21568   0.677E-02    0.926E-02
DAV:   3    -0.891948629715E+03    0.48067E-05   -0.21692E-04 13376   0.255E-02    0.621E-02
DAV:   4    -0.891948623703E+03    0.60114E-05   -0.10848E-04 12768   0.193E-02    0.450E-02
DAV:   5    -0.891948633180E+03   -0.94761E-05   -0.49967E-05 13280   0.125E-02    0.344E-02
DAV:   6    -0.891948634118E+03   -0.93822E-06   -0.22120E-05 12784   0.910E-03
  15 F= -.89194863E+03 E0= -.89190501E+03  d E =-.434258E-03  mag=    -0.0001
       N       E                     dE             d eps       ncg     rms          rms(c)
DAV:   1    -0.891947969554E+03    0.66363E-03   -0.36773E-01 20720   0.121E+00    0.273E-01
DAV:   2    -0.891949501570E+03   -0.15320E-02   -0.16513E-02 21536   0.201E-01    0.237E-01
DAV:   3    -0.891949528811E+03   -0.27241E-04   -0.11486E-03 23296   0.663E-02    0.170E-01
DAV:   4    -0.891949523074E+03    0.57369E-05   -0.93329E-04 15488   0.549E-02    0.178E-01
DAV:   5    -0.891949504077E+03    0.18996E-04   -0.57443E-04 13120   0.403E-02    0.123E-01
DAV:   6    -0.891949455087E+03    0.48991E-04   -0.30283E-04 13280   0.306E-02
  16 F= -.89194946E+03 E0= -.89190586E+03  d E =-.125523E-02  mag=    -0.0001
       N       E                     dE             d eps       ncg     rms          rms(c)
DAV:   1    -0.891943183713E+03    0.63204E-02   -0.14695E+00 20688   0.243E+00    0.547E-01
DAV:   2    -0.891949354574E+03   -0.61709E-02   -0.66557E-02 21632   0.404E-01    0.492E-01
DAV:   3    -0.891949423449E+03   -0.68875E-04   -0.60801E-03 27424   0.140E-01    0.351E-01
DAV:   4    -0.891949398855E+03    0.24594E-04   -0.55190E-03 21136   0.114E-01    0.361E-01
DAV:   5    -0.891949219280E+03    0.17957E-03   -0.26647E-03 16496   0.770E-02    0.256E-01
DAV:   6    -0.891949034853E+03    0.18443E-03   -0.95600E-04 16208   0.577E-02    0.707E-02
DAV:   7    -0.891949048605E+03   -0.13753E-04   -0.20288E-04 14096   0.285E-02
  17 F= -.89194905E+03 E0= -.89190540E+03  d E =-.848745E-03  mag=    -0.0001
       N       E                     dE             d eps       ncg     rms          rms(c)
DAV:   1    -0.891947467161E+03    0.15677E-02   -0.55348E-01 20720   0.149E+00    0.331E-01
DAV:   2    -0.891949786544E+03   -0.23194E-02   -0.24903E-02 21424   0.248E-01    0.309E-01
DAV:   3    -0.891949792308E+03   -0.57642E-05   -0.24294E-03 25136   0.886E-02    0.226E-01
DAV:   4    -0.891949750093E+03    0.42215E-04   -0.19032E-03 15392   0.692E-02    0.209E-01
DAV:   5    -0.891949713722E+03    0.36371E-04   -0.99160E-04 13280   0.494E-02    0.154E-01
DAV:   6    -0.891949655342E+03    0.58380E-04   -0.40037E-04 13344   0.382E-02
  18 F= -.89194966E+03 E0= -.89190603E+03  d E =-.145548E-02  mag=    -0.0001
       N       E                     dE             d eps       ncg     rms          rms(c)
DAV:   1    -0.891949591220E+03    0.12250E-03   -0.17039E-02 21024   0.263E-01    0.781E-02
DAV:   2    -0.891949718745E+03   -0.12752E-03   -0.11522E-03 21808   0.536E-02    0.126E-01
DAV:   3    -0.891949651018E+03    0.67726E-04   -0.38515E-04 13056   0.280E-02    0.419E-02
DAV:   4    -0.891949665607E+03   -0.14589E-04   -0.82104E-05 13056   0.155E-02    0.366E-02
DAV:   5    -0.891949665263E+03    0.34412E-06   -0.39790E-05 12992   0.995E-03    0.250E-02
DAV:   6    -0.891949674527E+03   -0.92639E-05   -0.19934E-05 12992   0.748E-03
  19 F= -.89194967E+03 E0= -.89190604E+03  d E =-.147467E-02  mag=    -0.0001
       N       E                     dE             d eps       ncg     rms          rms(c)
DAV:   1    -0.891949984976E+03   -0.31971E-03   -0.50123E-02 20864   0.426E-01    0.816E-02
DAV:   2    -0.891950137119E+03   -0.15214E-03   -0.16180E-03 22400   0.613E-02    0.612E-02
DAV:   3    -0.891950145355E+03   -0.82366E-05   -0.11469E-04 13504   0.200E-02    0.543E-02
DAV:   4    -0.891950141265E+03    0.40901E-05   -0.10605E-04 12816   0.186E-02    0.440E-02
DAV:   5    -0.891950144828E+03   -0.35630E-05   -0.58079E-05 12832   0.123E-02    0.331E-02
DAV:   6    -0.891950146192E+03   -0.13636E-05   -0.25844E-05 11936   0.893E-03
  20 F= -.89195015E+03 E0= -.89190650E+03  d E =-.471665E-03  mag=    -0.0001
       N       E                     dE             d eps       ncg     rms          rms(c)
DAV:   1    -0.891949690594E+03    0.45423E-03   -0.45072E-01 20848   0.128E+00    0.244E-01
DAV:   2    -0.891951008515E+03   -0.13179E-02   -0.14544E-02 22784   0.183E-01    0.164E-01
DAV:   3    -0.891951057197E+03   -0.48681E-04   -0.74547E-04 23040   0.520E-02    0.138E-01
DAV:   4    -0.891951054998E+03    0.21986E-05   -0.69052E-04 14864   0.458E-02    0.143E-01
DAV:   5    -0.891951013093E+03    0.41905E-04   -0.38061E-04 13216   0.354E-02    0.701E-02
DAV:   6    -0.891951015237E+03   -0.21436E-05   -0.20097E-04 14016   0.238E-02
  21 F= -.89195102E+03 E0= -.89190722E+03  d E =-.134071E-02  mag=    -0.0001
       N       E                     dE             d eps       ncg     rms          rms(c)
DAV:   1    -0.891945138101E+03    0.58750E-02   -0.18022E+00 20736   0.255E+00    0.489E-01
DAV:   2    -0.891950392884E+03   -0.52548E-02   -0.58188E-02 22752   0.366E-01    0.329E-01
DAV:   3    -0.891950586250E+03   -0.19337E-03   -0.31155E-03 27680   0.105E-01    0.275E-01
DAV:   4    -0.891950592285E+03   -0.60357E-05   -0.29675E-03 22112   0.936E-02    0.298E-01
DAV:   5    -0.891950386923E+03    0.20536E-03   -0.15039E-03 16368   0.648E-02    0.146E-01
DAV:   6    -0.891950371974E+03    0.14950E-04   -0.71207E-04 16384   0.443E-02
  22 F= -.89195037E+03 E0= -.89190635E+03  d E =-.697447E-03  mag=    -0.0001
       N       E                     dE             d eps       ncg     rms          rms(c)
DAV:   1    -0.891948978751E+03    0.14082E-02   -0.76251E-01 20880   0.166E+00    0.315E-01
DAV:   2    -0.891951211904E+03   -0.22332E-02   -0.24630E-02 22672   0.237E-01    0.233E-01
DAV:   3    -0.891951334186E+03   -0.12228E-03   -0.25411E-03 25568   0.737E-02    0.235E-01
DAV:   4    -0.891951156685E+03    0.17750E-03   -0.17113E-03 14208   0.577E-02    0.142E-01
DAV:   5    -0.891951179434E+03   -0.22749E-04   -0.63393E-04 14816   0.413E-02    0.103E-01
DAV:   6    -0.891951157333E+03    0.22101E-04   -0.35816E-04 14176   0.337E-02
  23 F= -.89195116E+03 E0= -.89190727E+03  d E =-.148281E-02  mag=    -0.0001
       N       E                     dE             d eps       ncg     rms          rms(c)
DAV:   1    -0.891951281249E+03   -0.10182E-03   -0.52462E-02 20864   0.460E-01    0.925E-02
DAV:   2    -0.891951504854E+03   -0.22361E-03   -0.23332E-03 21520   0.756E-02    0.800E-02
DAV:   3    -0.891951509800E+03   -0.49456E-05   -0.13752E-04 13856   0.235E-02    0.608E-02
DAV:   4    -0.891951503983E+03    0.58169E-05   -0.10514E-04 12944   0.206E-02    0.534E-02
DAV:   5    -0.891951507758E+03   -0.37750E-05   -0.66354E-05 12928   0.140E-02    0.394E-02
DAV:   6    -0.891951506048E+03    0.17100E-05   -0.37828E-05 13248   0.109E-02
  24 F= -.89195151E+03 E0= -.89190764E+03  d E =-.348715E-03  mag=    -0.0001
       N       E                     dE             d eps       ncg     rms          rms(c)
DAV:   1    -0.891950457892E+03    0.10499E-02   -0.46820E-01 20672   0.137E+00    0.280E-01
DAV:   2    -0.891952425971E+03   -0.19681E-02   -0.21070E-02 20800   0.225E-01    0.209E-01
DAV:   3    -0.891952496697E+03   -0.70727E-04   -0.10118E-03 23136   0.612E-02    0.164E-01
DAV:   4    -0.891952486668E+03    0.10029E-04   -0.87234E-04 14848   0.530E-02    0.171E-01
DAV:   5    -0.891952448769E+03    0.37899E-04   -0.51432E-04 13248   0.396E-02    0.105E-01
DAV:   6    -0.891952416705E+03    0.32064E-04   -0.24623E-04 13056   0.272E-02
  25 F= -.89195242E+03 E0= -.89190848E+03  d E =-.125937E-02  mag=    -0.0001
       N       E                     dE             d eps       ncg     rms          rms(c)
DAV:   1    -0.891945900460E+03    0.65483E-02   -0.18712E+00 20624   0.274E+00    0.561E-01
DAV:   2    -0.891953708667E+03   -0.78082E-02   -0.84132E-02 20928   0.450E-01    0.404E-01
DAV:   3    -0.891953963374E+03   -0.25471E-03   -0.38858E-03 27168   0.115E-01    0.309E-01
DAV:   4    -0.891954014392E+03   -0.51017E-04   -0.36779E-03 22032   0.103E-01    0.348E-01
DAV:   5    -0.891953798303E+03    0.21609E-03   -0.22249E-03 15088   0.746E-02    0.211E-01
DAV:   6    -0.891953676686E+03    0.12162E-03   -0.86929E-04 15072   0.506E-02    0.861E-02
DAV:   7    -0.891953657949E+03    0.18737E-04   -0.25632E-04 13856   0.304E-02
  26 F= -.89195366E+03 E0= -.89190965E+03  d E =-.250062E-02  mag=    -0.0001
       N       E                     dE             d eps       ncg     rms          rms(c)
DAV:   1    -0.891922789105E+03    0.30888E-01   -0.74912E+00 20608   0.550E+00    0.112E+00
DAV:   2    -0.891954065988E+03   -0.31277E-01   -0.33677E-01 20960   0.902E-01    0.809E-01
DAV:   3    -0.891955041112E+03   -0.97512E-03   -0.15078E-02 27328   0.225E-01    0.625E-01
DAV:   4    -0.891955140537E+03   -0.99426E-04   -0.13706E-02 26672   0.201E-01    0.700E-01
DAV:   5    -0.891953995882E+03    0.11447E-02   -0.56617E-03 24192   0.131E-01    0.297E-01
DAV:   6    -0.891953946721E+03    0.49161E-04   -0.25013E-03 22656   0.809E-02    0.183E-01
DAV:   7    -0.891953820260E+03    0.12646E-03   -0.11380E-03 15552   0.513E-02    0.107E-01
DAV:   8    -0.891953778110E+03    0.42150E-04   -0.32718E-04 13376   0.321E-02
  27 F= -.89195378E+03 E0= -.89190942E+03  d E =-.262078E-02  mag=    -0.0000
       N       E                     dE             d eps       ncg     rms          rms(c)
DAV:   1    -0.891946629108E+03    0.71912E-02   -0.18205E+00 20624   0.271E+00    0.549E-01
DAV:   2    -0.891954385874E+03   -0.77568E-02   -0.82214E-02 20768   0.445E-01    0.460E-01
DAV:   3    -0.891954622858E+03   -0.23698E-03   -0.60236E-03 25600   0.136E-01    0.387E-01
DAV:   4    -0.891954270019E+03    0.35284E-03   -0.38299E-03 20304   0.105E-01    0.294E-01
DAV:   5    -0.891954171153E+03    0.98866E-04   -0.11908E-03 16848   0.635E-02    0.156E-01
DAV:   6    -0.891954148249E+03    0.22904E-04   -0.59174E-04 16176   0.427E-02
  28 F= -.89195415E+03 E0= -.89191004E+03  d E =-.299092E-02  mag=    -0.0000
       N       E                     dE             d eps       ncg     rms          rms(c)
DAV:   1    -0.891953288598E+03    0.88255E-03   -0.47392E-01 20704   0.139E+00    0.287E-01
DAV:   2    -0.891955625151E+03   -0.23366E-02   -0.24894E-02 21376   0.248E-01    0.255E-01
DAV:   3    -0.891955732557E+03   -0.10741E-03   -0.29346E-03 21888   0.858E-02    0.240E-01
DAV:   4    -0.891955496412E+03    0.23615E-03   -0.13686E-03 13280   0.553E-02    0.113E-01
DAV:   5    -0.891955534993E+03   -0.38582E-04   -0.31237E-04 13248   0.325E-02    0.866E-02
DAV:   6    -0.891955533416E+03    0.15770E-05   -0.18079E-04 14624   0.266E-02
  29 F= -.89195553E+03 E0= -.89191136E+03  d E =-.138517E-02  mag=    -0.0000
       N       E                     dE             d eps       ncg     rms          rms(c)
DAV:   1    -0.891937733419E+03    0.17802E-01   -0.42570E+00 20608   0.414E+00    0.853E-01
DAV:   2    -0.891957701301E+03   -0.19968E-01   -0.21888E-01 21456   0.730E-01    0.524E-01
DAV:   3    -0.891958090883E+03   -0.38958E-03   -0.60949E-03 25584   0.144E-01    0.368E-01
DAV:   4    -0.891958330854E+03   -0.23997E-03   -0.44073E-03 23136   0.104E-01    0.399E-01
DAV:   5    -0.891958105168E+03    0.22569E-03   -0.32375E-03 20592   0.937E-02    0.202E-01
DAV:   6    -0.891958028096E+03    0.77072E-04   -0.11221E-03 18336   0.568E-02    0.108E-01
DAV:   7    -0.891957997912E+03    0.30184E-04   -0.31102E-04 13792   0.312E-02
  30 F= -.89195800E+03 E0= -.89191406E+03  d E =-.384966E-02  mag=    -0.0000
       N       E                     dE             d eps       ncg     rms          rms(c)
DAV:   1    -0.891953653650E+03    0.43744E-02   -0.96911E-01 20672   0.198E+00    0.406E-01
DAV:   2    -0.891958191363E+03   -0.45377E-02   -0.50182E-02 21408   0.347E-01    0.252E-01
DAV:   3    -0.891958319644E+03   -0.12828E-03   -0.16311E-03 24224   0.685E-02    0.190E-01
DAV:   4    -0.891958321740E+03   -0.20959E-05   -0.10499E-03 13888   0.451E-02    0.169E-01
DAV:   5    -0.891958324620E+03   -0.28809E-05   -0.74470E-04 13152   0.442E-02    0.970E-02
DAV:   6    -0.891958324212E+03    0.40809E-06   -0.30220E-04 13504   0.321E-02
  31 F= -.89195832E+03 E0= -.89191439E+03  d E =-.417596E-02  mag=    -0.0000
       N       E                     dE             d eps       ncg     rms          rms(c)
DAV:   1    -0.891957664601E+03    0.66002E-03   -0.50545E-01 20608   0.142E+00    0.268E-01
DAV:   2    -0.891959575261E+03   -0.19107E-02   -0.20873E-02 21120   0.222E-01    0.168E-01
DAV:   3    -0.891959602923E+03   -0.27662E-04   -0.55296E-04 23408   0.463E-02    0.105E-01
DAV:   4    -0.891959659841E+03   -0.56918E-04   -0.33452E-04 13952   0.352E-02    0.141E-01
DAV:   5    -0.891959622164E+03    0.37677E-04   -0.29934E-04 13376   0.348E-02    0.706E-02
DAV:   6    -0.891959618897E+03    0.32663E-05   -0.14979E-04 13952   0.223E-02
  32 F= -.89195962E+03 E0= -.89191581E+03  d E =-.129469E-02  mag=    -0.0000
       N       E                     dE             d eps       ncg     rms          rms(c)
DAV:   1    -0.891945066592E+03    0.14556E-01   -0.45582E+00 20608   0.424E+00    0.800E-01
DAV:   2    -0.891962338488E+03   -0.17272E-01   -0.18699E-01 21184   0.665E-01    0.525E-01
DAV:   3    -0.891962799252E+03   -0.46076E-03   -0.69438E-03 27456   0.160E-01    0.409E-01
DAV:   4    -0.891962897563E+03   -0.98311E-04   -0.58910E-03 24384   0.128E-01    0.437E-01
DAV:   5    -0.891962509407E+03    0.38816E-03   -0.31790E-03 21648   0.972E-02    0.201E-01
DAV:   6    -0.891962507371E+03    0.20359E-05   -0.16983E-03 20416   0.606E-02    0.150E-01
DAV:   7    -0.891962410112E+03    0.97259E-04   -0.60510E-04 13632   0.356E-02
  33 F= -.89196241E+03 E0= -.89191869E+03  d E =-.408590E-02  mag=    -0.0000
       N       E                     dE             d eps       ncg     rms          rms(c)
DAV:   1    -0.891893350915E+03    0.69156E-01   -0.18258E+01 20608   0.848E+00    0.161E+00
DAV:   2    -0.891962587158E+03   -0.69236E-01   -0.74864E-01 21216   0.133E+00    0.102E+00
DAV:   3    -0.891963994510E+03   -0.14074E-02   -0.24495E-02 28432   0.296E-01    0.747E-01
DAV:   4    -0.891964979677E+03   -0.98517E-03   -0.19067E-02 27936   0.236E-01    0.894E-01
DAV:   5    -0.891963006785E+03    0.19729E-02   -0.10349E-02 24624   0.184E-01    0.320E-01
DAV:   6    -0.891963162746E+03   -0.15596E-03   -0.45929E-03 24432   0.107E-01    0.245E-01
DAV:   7    -0.891962900301E+03    0.26244E-03   -0.21206E-03 18336   0.642E-02    0.117E-01
DAV:   8    -0.891962851801E+03    0.48501E-04   -0.31357E-04 13376   0.320E-02
  34 F= -.89196285E+03 E0= -.89191944E+03  d E =-.452759E-02  mag=    -0.0000
       N       E                     dE             d eps       ncg     rms          rms(c)
DAV:   1    -0.891945006572E+03    0.17894E-01   -0.49007E+00 20608   0.439E+00    0.818E-01
DAV:   2    -0.891963779631E+03   -0.18773E-01   -0.20187E-01 21584   0.692E-01    0.608E-01
DAV:   3    -0.891964392446E+03   -0.61281E-03   -0.10890E-02 27104   0.187E-01    0.527E-01
DAV:   4    -0.891963795931E+03    0.59652E-03   -0.70859E-03 24192   0.146E-01    0.414E-01
DAV:   5    -0.891963647741E+03    0.14819E-03   -0.27737E-03 21984   0.978E-02    0.224E-01
DAV:   6    -0.891963618825E+03    0.28915E-04   -0.21554E-03 20128   0.674E-02    0.169E-01
DAV:   7    -0.891963489923E+03    0.12890E-03   -0.81129E-04 13472   0.402E-02    0.497E-02
DAV:   8    -0.891963493469E+03   -0.35456E-05   -0.10173E-04 13312   0.224E-02
  35 F= -.89196349E+03 E0= -.89191989E+03  d E =-.516926E-02  mag=    -0.0000
       N       E                     dE             d eps       ncg     rms          rms(c)
DAV:   1    -0.891960896546E+03    0.25934E-02   -0.13003E+00 20672   0.225E+00    0.403E-01
DAV:   2    -0.891965667670E+03   -0.47711E-02   -0.51811E-02 21472   0.349E-01    0.276E-01
DAV:   3    -0.891965779972E+03   -0.11230E-03   -0.22183E-03 27392   0.889E-02    0.242E-01
DAV:   4    -0.891965642458E+03    0.13751E-03   -0.10326E-03 15104   0.597E-02    0.166E-01
DAV:   5    -0.891965676908E+03   -0.34449E-04   -0.54481E-04 13936   0.450E-02    0.126E-01
DAV:   6    -0.891965636774E+03    0.40134E-04   -0.44396E-04 13856   0.368E-02
  36 F= -.89196564E+03 E0= -.89192201E+03  d E =-.214331E-02  mag=    -0.0000
       N       E                     dE             d eps       ncg     rms          rms(c)
DAV:   1    -0.891924419685E+03    0.41257E-01   -0.11725E+01 20608   0.674E+00    0.122E+00
DAV:   2    -0.891967228396E+03   -0.42809E-01   -0.46714E-01 21728   0.105E+00    0.729E-01
DAV:   3    -0.891967760735E+03   -0.53234E-03   -0.12790E-02 28784   0.218E-01    0.519E-01
DAV:   4    -0.891968124170E+03   -0.36344E-03   -0.61662E-03 26496   0.141E-01    0.543E-01
DAV:   5    -0.891967898907E+03    0.22526E-03   -0.60503E-03 24384   0.138E-01    0.341E-01
DAV:   6    -0.891967635073E+03    0.26383E-03   -0.36603E-03 22800   0.944E-02    0.168E-01
DAV:   7    -0.891967538231E+03    0.96842E-04   -0.66545E-04 14624   0.412E-02
  37 F= -.89196754E+03 E0= -.89192367E+03  d E =-.404476E-02  mag=    -0.0000
       N       E                     dE             d eps       ncg     rms          rms(c)
DAV:   1    -0.891965843364E+03    0.17917E-02   -0.51555E-01 20672   0.141E+00    0.255E-01
DAV:   2    -0.891967730433E+03   -0.18871E-02   -0.20417E-02 21312   0.220E-01    0.179E-01
DAV:   3    -0.891967791759E+03   -0.61326E-04   -0.14601E-03 22976   0.633E-02    0.184E-01
DAV:   4    -0.891967680835E+03    0.11092E-03   -0.64098E-04 13120   0.391E-02    0.884E-02
DAV:   5    -0.891967718501E+03   -0.37666E-04   -0.29721E-04 13312   0.306E-02    0.996E-02
DAV:   6    -0.891967686789E+03    0.31712E-04   -0.19654E-04 13248   0.262E-02
  38 F= -.89196769E+03 E0= -.89192395E+03  d E =-.419332E-02  mag=    -0.0000
       N       E                     dE             d eps       ncg     rms          rms(c)
DAV:   1    -0.891961630124E+03    0.60884E-02   -0.18370E+00 20640   0.269E+00    0.538E-01
DAV:   2    -0.891969659619E+03   -0.80295E-02   -0.87188E-02 21248   0.450E-01    0.326E-01
DAV:   3    -0.891969716058E+03   -0.56439E-04   -0.19629E-03 27520   0.833E-02    0.205E-01
DAV:   4    -0.891969884417E+03   -0.16836E-03   -0.11159E-03 16160   0.549E-02    0.247E-01
DAV:   5    -0.891969762815E+03    0.12160E-03   -0.15194E-03 14528   0.605E-02    0.129E-01
DAV:   6    -0.891969741129E+03    0.21686E-04   -0.66563E-04 13184   0.419E-02
  39 F= -.89196974E+03 E0= -.89192574E+03  d E =-.205434E-02  mag=    -0.0000
       N       E                     dE             d eps       ncg     rms          rms(c)
DAV:   1    -0.891898997118E+03    0.70766E-01   -0.16516E+01 20608   0.806E+00    0.163E+00
DAV:   2    -0.891971716798E+03   -0.72720E-01   -0.78833E-01 21248   0.135E+00    0.986E-01
DAV:   3    -0.891972449740E+03   -0.73294E-03   -0.20125E-02 28288   0.257E-01    0.668E-01
DAV:   4    -0.891973660300E+03   -0.12106E-02   -0.13453E-02 28400   0.183E-01    0.743E-01
DAV:   5    -0.891972957908E+03    0.70239E-03   -0.16148E-02 26080   0.189E-01    0.450E-01
DAV:   6    -0.891972326141E+03    0.63177E-03   -0.49673E-03 24256   0.115E-01    0.190E-01
DAV:   7    -0.891972226136E+03    0.10001E-03   -0.10016E-03 19808   0.533E-02    0.990E-02
DAV:   8    -0.891972193688E+03    0.32447E-04   -0.15400E-04 13728   0.226E-02
  40 F= -.89197219E+03 E0= -.89192803E+03  d E =-.450690E-02  mag=    -0.0000
       N       E                     dE             d eps       ncg     rms          rms(c)
DAV:   1    -0.891955188217E+03    0.17038E-01   -0.44227E+00 20608   0.421E+00    0.825E-01
DAV:   2    -0.891974961190E+03   -0.19773E-01   -0.21667E-01 21216   0.720E-01    0.490E-01
DAV:   3    -0.891975268269E+03   -0.30708E-03   -0.48462E-03 26064   0.128E-01    0.321E-01
DAV:   4    -0.891975584665E+03   -0.31640E-03   -0.20533E-03 21200   0.781E-02    0.346E-01
DAV:   5    -0.891975354074E+03    0.23059E-03   -0.21044E-03 20976   0.830E-02    0.156E-01
DAV:   6    -0.891975381159E+03   -0.27085E-04   -0.61827E-04 15040   0.466E-02
  41 F= -.89197538E+03 E0= -.89193137E+03  d E =-.318747E-02  mag=    -0.0000
       N       E                     dE             d eps       ncg     rms          rms(c)
DAV:   1    -0.891795943071E+03    0.17941E+00   -0.39751E+01 20608   0.126E+01    0.249E+00
DAV:   2    -0.891974876372E+03   -0.17893E+00   -0.19469E+00 21184   0.216E+00    0.150E+00
DAV:   3    -0.891977210769E+03   -0.23344E-02   -0.44210E-02 27808   0.384E-01    0.960E-01
DAV:   4    -0.891980360392E+03   -0.31496E-02   -0.17804E-02 27968   0.244E-01    0.116E+00
DAV:   5    -0.891977368191E+03    0.29922E-02   -0.19119E-02 25008   0.250E-01    0.504E-01
DAV:   6    -0.891977534053E+03   -0.16586E-03   -0.98105E-03 25408   0.156E-01    0.372E-01
DAV:   7    -0.891976902967E+03    0.63109E-03   -0.27693E-03 21440   0.797E-02    0.122E-01
DAV:   8    -0.891976885227E+03    0.17740E-04   -0.37418E-04 13824   0.265E-02
  42 F= -.89197689E+03 E0= -.89193278E+03  d E =-.469154E-02  mag=    -0.0000
       N       E                     dE             d eps       ncg     rms          rms(c)
DAV:   1    -0.891950061115E+03    0.26842E-01   -0.61407E+00 20640   0.497E+00    0.982E-01
DAV:   2    -0.891977465867E+03   -0.27405E-01   -0.29847E-01 21184   0.846E-01    0.589E-01
DAV:   3    -0.891977836034E+03   -0.37017E-03   -0.74038E-03 26224   0.159E-01    0.394E-01
DAV:   4    -0.891978095538E+03   -0.25950E-03   -0.36846E-03 24208   0.101E-01    0.441E-01
DAV:   5    -0.891977756066E+03    0.33947E-03   -0.33366E-03 22016   0.953E-02    0.200E-01
DAV:   6    -0.891977739153E+03    0.16913E-04   -0.14142E-03 19408   0.568E-02    0.117E-01
DAV:   7    -0.891977687411E+03    0.51742E-04   -0.21529E-04 13376   0.270E-02
  43 F= -.89197769E+03 E0= -.89193365E+03  d E =-.549372E-02  mag=    -0.0000
       N       E                     dE             d eps       ncg     rms          rms(c)
DAV:   1    -0.891961195498E+03    0.16544E-01   -0.54443E+00 20608   0.461E+00    0.815E-01
DAV:   2    -0.891981348157E+03   -0.20153E-01   -0.21945E-01 21472   0.724E-01    0.508E-01
DAV:   3    -0.891981717283E+03   -0.36913E-03   -0.77373E-03 29008   0.158E-01    0.396E-01
DAV:   4    -0.891981548646E+03    0.16864E-03   -0.45153E-03 21856   0.986E-02    0.331E-01
DAV:   5    -0.891981682294E+03   -0.13365E-03   -0.36245E-03 21088   0.907E-02    0.280E-01
DAV:   6    -0.891981398447E+03    0.28385E-03   -0.16184E-03 20640   0.636E-02    0.911E-02
DAV:   7    -0.891981400799E+03   -0.23524E-05   -0.19948E-04 13216   0.265E-02
  44 F= -.89198140E+03 E0= -.89193737E+03  d E =-.371339E-02  mag=    -0.0000
       N       E                     dE             d eps       ncg     rms          rms(c)
DAV:   1    -0.891949966183E+03    0.31432E-01   -0.88816E+00 20608   0.589E+00    0.104E+00
DAV:   2    -0.891982875373E+03   -0.32909E-01   -0.35940E-01 21376   0.926E-01    0.630E-01
DAV:   3    -0.891983291229E+03   -0.41586E-03   -0.90641E-03 29248   0.180E-01    0.409E-01
DAV:   4    -0.891983871104E+03   -0.57987E-03   -0.41489E-03 26608   0.118E-01    0.498E-01
DAV:   5    -0.891983401679E+03    0.46943E-03   -0.44209E-03 24384   0.118E-01    0.260E-01
DAV:   6    -0.891983333320E+03    0.68359E-04   -0.20974E-03 21536   0.734E-02    0.146E-01
DAV:   7    -0.891983252865E+03    0.80455E-04   -0.51331E-04 13440   0.352E-02
  45 F= -.89198325E+03 E0= -.89193929E+03  d E =-.556545E-02  mag=    -0.0000
       N       E                     dE             d eps       ncg     rms          rms(c)
DAV:   1    -0.891970297598E+03    0.13036E-01   -0.41381E+00 20608   0.397E+00    0.743E-01
DAV:   2    -0.891985653246E+03   -0.15356E-01   -0.16595E-01 21312   0.615E-01    0.452E-01
DAV:   3    -0.891985974079E+03   -0.32083E-03   -0.52116E-03 28528   0.127E-01    0.349E-01
DAV:   4    -0.891986040116E+03   -0.66038E-04   -0.38857E-03 19632   0.910E-02    0.335E-01
DAV:   5    -0.891986011827E+03    0.28289E-04   -0.33793E-03 19584   0.872E-02    0.226E-01
DAV:   6    -0.891985849173E+03    0.16265E-03   -0.12761E-03 17344   0.569E-02    0.971E-02
DAV:   7    -0.891985821576E+03    0.27596E-04   -0.19244E-04 13568   0.286E-02
  46 F= -.89198582E+03 E0= -.89194180E+03  d E =-.256871E-02  mag=    -0.0000
       N       E                     dE             d eps       ncg     rms          rms(c)
DAV:   1    -0.891979614508E+03    0.62347E-02   -0.17721E+00 20608   0.260E+00    0.487E-01
DAV:   2    -0.891986192001E+03   -0.65775E-02   -0.71127E-02 21216   0.402E-01    0.296E-01
DAV:   3    -0.891986322809E+03   -0.13081E-03   -0.20411E-03 27808   0.813E-02    0.216E-01
DAV:   4    -0.891986422254E+03   -0.99445E-04   -0.14866E-03 17104   0.628E-02    0.240E-01
DAV:   5    -0.891986340075E+03    0.82179E-04   -0.14133E-03 15360   0.616E-02    0.135E-01
DAV:   6    -0.891986300953E+03    0.39122E-04   -0.60306E-04 13840   0.408E-02
  47 F= -.89198630E+03 E0= -.89194228E+03  d E =-.304809E-02  mag=    -0.0000
       N       E                     dE             d eps       ncg     rms          rms(c)
DAV:   1    -0.891965960929E+03    0.20379E-01   -0.50998E+00 20608   0.441E+00    0.875E-01
DAV:   2    -0.891988550814E+03   -0.22590E-01   -0.24574E-01 21184   0.745E-01    0.529E-01
DAV:   3    -0.891988758395E+03   -0.20758E-03   -0.53974E-03 27872   0.138E-01    0.335E-01
DAV:   4    -0.891989146398E+03   -0.38800E-03   -0.20260E-03 23776   0.843E-02    0.395E-01
DAV:   5    -0.891988806963E+03    0.33944E-03   -0.20933E-03 22032   0.836E-02    0.166E-01
DAV:   6    -0.891988842971E+03   -0.36008E-04   -0.10508E-03 15616   0.510E-02    0.131E-01
DAV:   7    -0.891988767268E+03    0.75703E-04   -0.25524E-04 13536   0.302E-02
  48 F= -.89198877E+03 E0= -.89194475E+03  d E =-.246631E-02  mag=    -0.0000
       N       E                     dE             d eps       ncg     rms          rms(c)
DAV:   1    -0.891983148076E+03    0.56949E-02   -0.13495E+00 20608   0.227E+00    0.449E-01
DAV:   2    -0.891989134031E+03   -0.59860E-02   -0.65202E-02 21184   0.384E-01    0.278E-01
DAV:   3    -0.891989229488E+03   -0.95457E-04   -0.17823E-03 27392   0.760E-02    0.200E-01
DAV:   4    -0.891989260896E+03   -0.31409E-04   -0.10319E-03 14368   0.506E-02    0.190E-01
DAV:   5    -0.891989256502E+03    0.43940E-05   -0.10300E-03 14240   0.525E-02    0.126E-01
DAV:   6    -0.891989220918E+03    0.35585E-04   -0.41214E-04 13728   0.354E-02
  49 F= -.89198922E+03 E0= -.89194522E+03  d E =-.291996E-02  mag=    -0.0000
       N       E                     dE             d eps       ncg     rms          rms(c)
DAV:   1    -0.891964232632E+03    0.25024E-01   -0.53840E+00 20608   0.453E+00    0.898E-01
DAV:   2    -0.891988096585E+03   -0.23864E-01   -0.25950E-01 21248   0.765E-01    0.550E-01
DAV:   3    -0.891988309673E+03   -0.21309E-03   -0.58913E-03 27808   0.144E-01    0.350E-01
DAV:   4    -0.891988622751E+03   -0.31308E-03   -0.20234E-03 23888   0.841E-02    0.388E-01
DAV:   5    -0.891988372467E+03    0.25028E-03   -0.18604E-03 21824   0.839E-02    0.170E-01
DAV:   6    -0.891988405539E+03   -0.33071E-04   -0.12334E-03 15728   0.583E-02    0.151E-01
DAV:   7    -0.891988304507E+03    0.10103E-03   -0.38834E-04 13216   0.353E-02    0.317E-02
DAV:   8    -0.891988308425E+03   -0.39181E-05   -0.54241E-05 13216   0.134E-02
  50 F= -.89198831E+03 E0= -.89194437E+03  d E =-.200747E-02  mag=    -0.0000
       N       E                     dE             d eps       ncg     rms          rms(c)
DAV:   1    -0.891976932557E+03    0.11372E-01   -0.27659E+00 20608   0.324E+00    0.642E-01
DAV:   2    -0.891989135315E+03   -0.12203E-01   -0.13267E-01 21312   0.547E-01    0.393E-01
DAV:   3    -0.891989216398E+03   -0.81083E-04   -0.30101E-03 27456   0.105E-01    0.253E-01
DAV:   4    -0.891989353317E+03   -0.13692E-03   -0.10401E-03 18192   0.619E-02    0.280E-01
DAV:   5    -0.891989227968E+03    0.12535E-03   -0.10460E-03 19040   0.626E-02    0.124E-01
DAV:   6    -0.891989233146E+03   -0.51777E-05   -0.62033E-04 13568   0.401E-02
  51 F= -.89198923E+03 E0= -.89194529E+03  d E =-.293219E-02  mag=    -0.0000
       N       E                     dE             d eps       ncg     rms          rms(c)
DAV:   1    -0.891969864054E+03    0.19364E-01   -0.51346E+00 20608   0.448E+00    0.857E-01
DAV:   2    -0.891991315350E+03   -0.21451E-01   -0.23201E-01 20704   0.737E-01    0.521E-01
DAV:   3    -0.891991541800E+03   -0.22645E-03   -0.52387E-03 27344   0.133E-01    0.324E-01
DAV:   4    -0.891991915700E+03   -0.37390E-03   -0.23681E-03 22752   0.828E-02    0.387E-01
DAV:   5    -0.891991587464E+03    0.32824E-03   -0.24634E-03 22496   0.868E-02    0.148E-01
DAV:   6    -0.891991615047E+03   -0.27584E-04   -0.11921E-03 14688   0.529E-02    0.128E-01
DAV:   7    -0.891991537603E+03    0.77444E-04   -0.36717E-04 13696   0.341E-02
  52 F= -.89199154E+03 E0= -.89194752E+03  d E =-.230446E-02  mag=    -0.0000
       N       E                     dE             d eps       ncg     rms          rms(c)
DAV:   1    -0.891927311082E+03    0.64304E-01   -0.15444E+01 20608   0.778E+00    0.149E+00
DAV:   2    -0.891992141159E+03   -0.64830E-01   -0.70183E-01 20864   0.128E+00    0.914E-01
DAV:   3    -0.891992986170E+03   -0.84501E-03   -0.16656E-02 27648   0.234E-01    0.591E-01
DAV:   4    -0.891993962848E+03   -0.97668E-03   -0.78752E-03 27504   0.151E-01    0.681E-01
DAV:   5    -0.891993018637E+03    0.94421E-03   -0.77215E-03 24304   0.151E-01    0.274E-01
DAV:   6    -0.891993149075E+03   -0.13044E-03   -0.40615E-03 23248   0.884E-02    0.225E-01
DAV:   7    -0.891992902646E+03    0.24643E-03   -0.12600E-03 15008   0.495E-02    0.725E-02
DAV:   8    -0.891992900075E+03    0.25718E-05   -0.12736E-04 13728   0.233E-02
  53 F= -.89199290E+03 E0= -.89194886E+03  d E =-.366693E-02  mag=    -0.0000
       N       E                     dE             d eps       ncg     rms          rms(c)
DAV:   1    -0.891982742385E+03    0.10160E-01   -0.34144E+00 20608   0.359E+00    0.641E-01
DAV:   2    -0.891995236703E+03   -0.12494E-01   -0.13592E-01 21120   0.558E-01    0.378E-01
DAV:   3    -0.891995407051E+03   -0.17035E-03   -0.31763E-03 28288   0.104E-01    0.243E-01
DAV:   4    -0.891995708678E+03   -0.30163E-03   -0.17278E-03 20224   0.698E-02    0.318E-01
DAV:   5    -0.891995425149E+03    0.28353E-03   -0.15527E-03 19952   0.709E-02    0.933E-02
DAV:   6    -0.891995465234E+03   -0.40085E-04   -0.36001E-04 14016   0.356E-02
  54 F= -.89199547E+03 E0= -.89195121E+03  d E =-.256516E-02  mag=    -0.0000
       N       E                     dE             d eps       ncg     rms          rms(c)
DAV:   1    -0.891885285852E+03    0.11014E+00   -0.30669E+01 20608   0.108E+01    0.193E+00
DAV:   2    -0.891997874630E+03   -0.11259E+00   -0.12178E+00 21280   0.168E+00    0.115E+00
DAV:   3    -0.891999289765E+03   -0.14151E-02   -0.30732E-02 28784   0.322E-01    0.754E-01
DAV:   4    -0.892001031711E+03   -0.17419E-02   -0.14863E-02 28832   0.214E-01    0.923E-01
DAV:   5    -0.891998710692E+03    0.23210E-02   -0.12841E-02 24288   0.199E-01    0.307E-01
DAV:   6    -0.891999243962E+03   -0.53327E-03   -0.54427E-03 24608   0.110E-01    0.313E-01
DAV:   7    -0.891998768022E+03    0.47594E-03   -0.18501E-03 18016   0.645E-02    0.826E-02
DAV:   8    -0.891998779036E+03   -0.11014E-04   -0.13853E-04 13472   0.231E-02
  55 F= -.89199878E+03 E0= -.89195441E+03  d E =-.587896E-02  mag=    -0.0000
       N       E                     dE             d eps       ncg     rms          rms(c)
DAV:   1    -0.891984507306E+03    0.14261E-01   -0.40546E+00 20608   0.396E+00    0.729E-01
DAV:   2    -0.892000960625E+03   -0.16453E-01   -0.17789E-01 21344   0.643E-01    0.465E-01
DAV:   3    -0.892001385120E+03   -0.42449E-03   -0.59671E-03 27328   0.139E-01    0.376E-01
DAV:   4    -0.892001216805E+03    0.16831E-03   -0.28215E-03 18784   0.901E-02    0.295E-01
DAV:   5    -0.892001329814E+03   -0.11301E-03   -0.21199E-03 20432   0.794E-02    0.210E-01
DAV:   6    -0.892001202744E+03    0.12707E-03   -0.11743E-03 14912   0.533E-02    0.977E-02
DAV:   7    -0.892001174010E+03    0.28734E-04   -0.25273E-04 13280   0.298E-02
  56 F= -.89200117E+03 E0= -.89195677E+03  d E =-.239497E-02  mag=    -0.0000
       N       E                     dE             d eps       ncg     rms          rms(c)
DAV:   1    -0.891975451598E+03    0.25751E-01   -0.64420E+00 20608   0.499E+00    0.924E-01
DAV:   2    -0.892001391349E+03   -0.25940E-01   -0.28143E-01 21568   0.808E-01    0.544E-01
DAV:   3    -0.892001800382E+03   -0.40903E-03   -0.67531E-03 28480   0.146E-01    0.364E-01
DAV:   4    -0.892002223678E+03   -0.42330E-03   -0.43467E-03 21824   0.917E-02    0.404E-01
DAV:   5    -0.892001885100E+03    0.33858E-03   -0.46492E-03 21920   0.966E-02    0.177E-01
DAV:   6    -0.892001896957E+03   -0.11857E-04   -0.11428E-03 19072   0.536E-02    0.122E-01
DAV:   7    -0.892001835218E+03    0.61739E-04   -0.22388E-04 14368   0.293E-02
  57 F= -.89200184E+03 E0= -.89195734E+03  d E =-.305618E-02  mag=    -0.0000
       N       E                     dE             d eps       ncg     rms          rms(c)
DAV:   1    -0.892000082503E+03    0.18145E-02   -0.46151E-01 20640   0.134E+00    0.250E-01
DAV:   2    -0.892001940578E+03   -0.18581E-02   -0.19999E-02 21312   0.217E-01    0.165E-01
DAV:   3    -0.892001996172E+03   -0.55594E-04   -0.10307E-03 22352   0.543E-02    0.156E-01
DAV:   4    -0.892001917468E+03    0.78704E-04   -0.41914E-04 13120   0.322E-02    0.841E-02
DAV:   5    -0.892001965820E+03   -0.48353E-04   -0.28441E-04 13312   0.297E-02    0.102E-01
DAV:   6    -0.892001929079E+03    0.36742E-04   -0.18783E-04 13360   0.247E-02
  58 F= -.89200193E+03 E0= -.89195746E+03  d E =-.315004E-02  mag=    -0.0000
       N       E                     dE             d eps       ncg     rms          rms(c)
DAV:   1    -0.891979866910E+03    0.22099E-01   -0.58854E+00 20608   0.475E+00    0.933E-01
DAV:   2    -0.892004879635E+03   -0.25013E-01   -0.26956E-01 21408   0.787E-01    0.589E-01
DAV:   3    -0.892005195121E+03   -0.31549E-03   -0.70633E-03 27440   0.155E-01    0.410E-01
DAV:   4    -0.892005427261E+03   -0.23214E-03   -0.39696E-03 25616   0.111E-01    0.443E-01
DAV:   5    -0.892005078817E+03    0.34844E-03   -0.32563E-03 22480   0.102E-01    0.200E-01
DAV:   6    -0.892005096663E+03   -0.17847E-04   -0.19213E-03 17280   0.663E-02    0.159E-01
DAV:   7    -0.892004971893E+03    0.12477E-03   -0.49604E-04 13760   0.387E-02    0.361E-02
DAV:   8    -0.892004979475E+03   -0.75819E-05   -0.58430E-05 14080   0.145E-02
  59 F= -.89200498E+03 E0= -.89196054E+03  d E =-.305040E-02  mag=    -0.0000
       N       E                     dE             d eps       ncg     rms          rms(c)
DAV:   1    -0.891966627622E+03    0.38344E-01   -0.93194E+00 20608   0.597E+00    0.118E+00
DAV:   2    -0.892006301038E+03   -0.39673E-01   -0.42779E-01 21344   0.991E-01    0.731E-01
DAV:   3    -0.892006802623E+03   -0.50158E-03   -0.10511E-02 27648   0.188E-01    0.493E-01
DAV:   4    -0.892007411180E+03   -0.60856E-03   -0.60316E-03 27952   0.137E-01    0.578E-01
DAV:   5    -0.892006654620E+03    0.75656E-03   -0.50132E-03 24512   0.127E-01    0.219E-01
DAV:   6    -0.892006808638E+03   -0.15402E-03   -0.28018E-03 21440   0.802E-02    0.217E-01
DAV:   7    -0.892006566966E+03    0.24167E-03   -0.84702E-04 13824   0.447E-02    0.452E-02
DAV:   8    -0.892006580294E+03   -0.13328E-04   -0.82101E-05 13664   0.180E-02
  60 F= -.89200658E+03 E0= -.89196223E+03  d E =-.465122E-02  mag=    -0.0000
       N       E                     dE             d eps       ncg     rms          rms(c)
DAV:   1    -0.891989483749E+03    0.17083E-01   -0.54498E+00 20608   0.453E+00    0.816E-01
DAV:   2    -0.892008774183E+03   -0.19290E-01   -0.21170E-01 21536   0.709E-01    0.498E-01
DAV:   3    -0.892009083756E+03   -0.30957E-03   -0.65273E-03 28112   0.148E-01    0.369E-01
DAV:   4    -0.892009156574E+03   -0.72818E-04   -0.38454E-03 21648   0.977E-02    0.347E-01
DAV:   5    -0.892009131533E+03    0.25041E-04   -0.40385E-03 22096   0.941E-02    0.244E-01
DAV:   6    -0.892008977509E+03    0.15402E-03   -0.17727E-03 18176   0.638E-02    0.124E-01
DAV:   7    -0.892008922276E+03    0.55234E-04   -0.24766E-04 13600   0.313E-02
  61 F= -.89200892E+03 E0= -.89196468E+03  d E =-.234198E-02  mag=    -0.0000
       N       E                     dE             d eps       ncg     rms          rms(c)
DAV:   1    -0.892006619227E+03    0.23583E-02   -0.67319E-01 20608   0.159E+00    0.289E-01
DAV:   2    -0.892009013366E+03   -0.23941E-02   -0.26455E-02 21664   0.250E-01    0.173E-01
DAV:   3    -0.892009055170E+03   -0.41804E-04   -0.70603E-04 25200   0.500E-02    0.118E-01
DAV:   4    -0.892009083810E+03   -0.28640E-04   -0.31108E-04 14736   0.311E-02    0.124E-01
DAV:   5    -0.892009066984E+03    0.16827E-04   -0.27635E-04 14144   0.334E-02    0.537E-02
DAV:   6    -0.892009071129E+03   -0.41452E-05   -0.10466E-04 13776   0.208E-02
  62 F= -.89200907E+03 E0= -.89196494E+03  d E =-.249083E-02  mag=    -0.0000
       N       E                     dE             d eps       ncg     rms          rms(c)
DAV:   1    -0.891999141071E+03    0.99259E-02   -0.32870E+00 20640   0.345E+00    0.635E-01
DAV:   2    -0.892010676634E+03   -0.11536E-01   -0.12587E-01 20800   0.527E-01    0.377E-01
DAV:   3    -0.892010840984E+03   -0.16435E-03   -0.34251E-03 27872   0.105E-01    0.255E-01
DAV:   4    -0.892011040277E+03   -0.19929E-03   -0.20030E-03 18192   0.665E-02    0.286E-01
DAV:   5    -0.892010872940E+03    0.16734E-03   -0.21077E-03 19264   0.674E-02    0.133E-01
DAV:   6    -0.892010890900E+03   -0.17960E-04   -0.66614E-04 14592   0.401E-02
  63 F= -.89201089E+03 E0= -.89196652E+03  d E =-.181977E-02  mag=    -0.0000
       N       E                     dE             d eps       ncg     rms          rms(c)
DAV:   1    -0.891990184935E+03    0.20688E-01   -0.59977E+00 20608   0.467E+00    0.858E-01
DAV:   2    -0.892011335425E+03   -0.21150E-01   -0.23040E-01 20928   0.715E-01    0.528E-01
DAV:   3    -0.892011796242E+03   -0.46082E-03   -0.84564E-03 27696   0.155E-01    0.406E-01
DAV:   4    -0.892011780540E+03    0.15702E-04   -0.58355E-03 21888   0.108E-01    0.368E-01
DAV:   5    -0.892011727446E+03    0.53094E-04   -0.39737E-03 21440   0.933E-02    0.217E-01
DAV:   6    -0.892011634879E+03    0.92567E-04   -0.11386E-03 20576   0.605E-02    0.117E-01
DAV:   7    -0.892011591493E+03    0.43385E-04   -0.22383E-04 14160   0.281E-02
  64 F= -.89201159E+03 E0= -.89196724E+03  d E =-.252036E-02  mag=    -0.0000
       N       E                     dE             d eps       ncg     rms          rms(c)
DAV:   1    -0.892008393931E+03    0.32409E-02   -0.11242E+00 20608   0.205E+00    0.384E-01
DAV:   2    -0.892012730263E+03   -0.43363E-02   -0.46759E-02 20960   0.327E-01    0.246E-01
DAV:   3    -0.892012870364E+03   -0.14010E-03   -0.17484E-03 27248   0.765E-02    0.218E-01
DAV:   4    -0.892012769736E+03    0.10063E-03   -0.77583E-04 14016   0.494E-02    0.144E-01
DAV:   5    -0.892012824474E+03   -0.54738E-04   -0.53265E-04 14224   0.440E-02    0.106E-01
DAV:   6    -0.892012795012E+03    0.29462E-04   -0.43290E-04 13504   0.324E-02
  65 F= -.89201280E+03 E0= -.89196845E+03  d E =-.120352E-02  mag=    -0.0000
       N       E                     dE             d eps       ncg     rms          rms(c)
DAV:   1    -0.891975709722E+03    0.37115E-01   -0.10097E+01 20640   0.614E+00    0.115E+00
DAV:   2    -0.892014278650E+03   -0.38569E-01   -0.41595E-01 21008   0.976E-01    0.679E-01
DAV:   3    -0.892014780245E+03   -0.50159E-03   -0.98784E-03 28400   0.178E-01    0.450E-01
DAV:   4    -0.892015344092E+03   -0.56385E-03   -0.44736E-03 25856   0.114E-01    0.511E-01
DAV:   5    -0.892014858978E+03    0.48511E-03   -0.51790E-03 24144   0.118E-01    0.230E-01
DAV:   6    -0.892014814485E+03    0.44493E-04   -0.19393E-03 21536   0.675E-02    0.142E-01
DAV:   7    -0.892014724493E+03    0.89992E-04   -0.33104E-04 13632   0.311E-02
  66 F= -.89201472E+03 E0= -.89197021E+03  d E =-.313300E-02  mag=    -0.0000
       N       E                     dE             d eps       ncg     rms          rms(c)
DAV:   1    -0.892013561768E+03    0.12527E-02   -0.54639E-01 20608   0.140E+00    0.318E-01
DAV:   2    -0.892016186107E+03   -0.26243E-02   -0.28906E-02 21120   0.257E-01    0.218E-01
DAV:   3    -0.892016300160E+03   -0.11405E-03   -0.18424E-03 22672   0.661E-02    0.209E-01
DAV:   4    -0.892016159107E+03    0.14105E-03   -0.87887E-04 13088   0.400E-02    0.115E-01
DAV:   5    -0.892016260924E+03   -0.10182E-03   -0.45214E-04 12960   0.367E-02    0.118E-01
DAV:   6    -0.892016211365E+03    0.49559E-04   -0.30027E-04 13536   0.320E-02
  67 F= -.89201621E+03 E0= -.89197179E+03  d E =-.148687E-02  mag=    -0.0000
       N       E                     dE             d eps       ncg     rms          rms(c)
DAV:   1    -0.891994025058E+03    0.22236E-01   -0.48993E+00 20608   0.420E+00    0.949E-01
DAV:   2    -0.892017329967E+03   -0.23305E-01   -0.25471E-01 21408   0.762E-01    0.593E-01
DAV:   3    -0.892017595461E+03   -0.26549E-03   -0.66382E-03 26672   0.151E-01    0.395E-01
DAV:   4    -0.892018300926E+03   -0.70547E-03   -0.64876E-03 25616   0.122E-01    0.511E-01
DAV:   5    -0.892017625715E+03    0.67521E-03   -0.55025E-03 22880   0.114E-01    0.213E-01
DAV:   6    -0.892017596329E+03    0.29386E-04   -0.17612E-03 20576   0.650E-02    0.146E-01
DAV:   7    -0.892017511885E+03    0.84444E-04   -0.52956E-04 13888   0.351E-02
  68 F= -.89201751E+03 E0= -.89197315E+03  d E =-.278739E-02  mag=    -0.0000
       N       E                     dE             d eps       ncg     rms          rms(c)
DAV:   1    -0.892016477999E+03    0.11183E-02   -0.24408E-01 20608   0.938E-01    0.215E-01
DAV:   2    -0.892017664895E+03   -0.11869E-02   -0.12825E-02 21264   0.171E-01    0.164E-01
DAV:   3    -0.892017726091E+03   -0.61196E-04   -0.15043E-03 17792   0.563E-02    0.177E-01
DAV:   4    -0.892017603366E+03    0.12272E-03   -0.56978E-04 13024   0.348E-02    0.749E-02
DAV:   5    -0.892017647178E+03   -0.43812E-04   -0.18033E-04 13152   0.249E-02    0.860E-02
DAV:   6    -0.892017621174E+03    0.26004E-04   -0.12986E-04 13568   0.226E-02
  69 F= -.89201762E+03 E0= -.89197321E+03  d E =-.289668E-02  mag=    -0.0000
       N       E                     dE             d eps       ncg     rms          rms(c)
DAV:   1    -0.892017422066E+03    0.22511E-03   -0.33881E-01 20736   0.104E+00    0.216E-01
DAV:   2    -0.892018346953E+03   -0.92489E-03   -0.10065E-02 21568   0.144E-01    0.126E-01
DAV:   3    -0.892018382870E+03   -0.35917E-04   -0.48091E-04 21568   0.406E-02    0.127E-01
DAV:   4    -0.892018349110E+03    0.33761E-04   -0.35346E-04 13216   0.332E-02    0.836E-02
DAV:   5    -0.892018356431E+03   -0.73216E-05   -0.19837E-04 13856   0.278E-02    0.590E-02
DAV:   6    -0.892018345815E+03    0.10616E-04   -0.97047E-05 13280   0.172E-02
  70 F= -.89201835E+03 E0= -.89197396E+03  d E =-.724641E-03  mag=    -0.0000
       N       E                     dE             d eps       ncg     rms          rms(c)
DAV:   1    -0.892015409353E+03    0.29471E-02   -0.11629E+00 20704   0.192E+00    0.403E-01
DAV:   2    -0.892018595002E+03   -0.31856E-02   -0.34735E-02 21984   0.266E-01    0.216E-01
DAV:   3    -0.892018634456E+03   -0.39454E-04   -0.99023E-04 28224   0.566E-02    0.143E-01
DAV:   4    -0.892018863043E+03   -0.22859E-03   -0.14741E-03 16064   0.553E-02    0.237E-01
DAV:   5    -0.892018647376E+03    0.21567E-03   -0.16385E-03 14656   0.563E-02    0.830E-02
DAV:   6    -0.892018653065E+03   -0.56883E-05   -0.30118E-04 13088   0.278E-02
  71 F= -.89201865E+03 E0= -.89197431E+03  d E =-.103189E-02  mag=    -0.0000
       N       E                     dE             d eps       ncg     rms          rms(c)
DAV:   1    -0.892018617475E+03    0.29901E-04   -0.12840E-01 20608   0.654E-01    0.133E-01
DAV:   2    -0.892018995263E+03   -0.37779E-03   -0.40856E-03 21104   0.931E-02    0.757E-02
DAV:   3    -0.892019016239E+03   -0.20976E-04   -0.23324E-04 16976   0.275E-02    0.850E-02
DAV:   4    -0.892018991271E+03    0.24968E-04   -0.12234E-04 12832   0.200E-02    0.383E-02
DAV:   5    -0.892019008508E+03   -0.17236E-04   -0.76705E-05 12896   0.147E-02    0.454E-02
DAV:   6    -0.892018997184E+03    0.11324E-04   -0.53256E-05 12640   0.121E-02
  72 F= -.89201900E+03 E0= -.89197469E+03  d E =-.344119E-03  mag=    -0.0000
       N       E                     dE             d eps       ncg     rms          rms(c)
DAV:   1    -0.892017466061E+03    0.15424E-02   -0.71528E-01 20640   0.154E+00    0.301E-01
DAV:   2    -0.892019501427E+03   -0.20354E-02   -0.22182E-02 21024   0.216E-01    0.158E-01
DAV:   3    -0.892019525155E+03   -0.23728E-04   -0.56984E-04 26480   0.437E-02    0.101E-01
DAV:   4    -0.892019610713E+03   -0.85558E-04   -0.41645E-04 13824   0.329E-02    0.131E-01
DAV:   5    -0.892019549034E+03    0.61680E-04   -0.55207E-04 13136   0.366E-02    0.557E-02
DAV:   6    -0.892019541738E+03    0.72953E-05   -0.15317E-04 12992   0.194E-02
  73 F= -.89201954E+03 E0= -.89197526E+03  d E =-.888674E-03  mag=    -0.0000
       N       E                     dE             d eps       ncg     rms          rms(c)
DAV:   1    -0.892011061643E+03    0.84874E-02   -0.28613E+00 20672   0.308E+00    0.599E-01
DAV:   2    -0.892019170261E+03   -0.81086E-02   -0.88432E-02 21120   0.431E-01    0.318E-01
DAV:   3    -0.892019273050E+03   -0.10279E-03   -0.23438E-03 28896   0.878E-02    0.204E-01
DAV:   4    -0.892019853625E+03   -0.58057E-03   -0.35431E-03 18608   0.819E-02    0.355E-01
DAV:   5    -0.892019281871E+03    0.57175E-03   -0.36705E-03 17104   0.797E-02    0.878E-02
DAV:   6    -0.892019325760E+03   -0.43889E-04   -0.37369E-04 13120   0.331E-02
  74 F= -.89201933E+03 E0= -.89197501E+03  d E =-.672695E-03  mag=    -0.0000
       N       E                     dE             d eps       ncg     rms          rms(c)
DAV:   1    -0.892017823746E+03    0.14581E-02   -0.64547E-01 20768   0.146E+00    0.281E-01
DAV:   2    -0.892019652644E+03   -0.18289E-02   -0.19852E-02 20992   0.205E-01    0.174E-01
DAV:   3    -0.892019723688E+03   -0.71044E-04   -0.11387E-03 24688   0.570E-02    0.163E-01
DAV:   4    -0.892019673736E+03    0.49952E-04   -0.10214E-03 13312   0.472E-02    0.128E-01
DAV:   5    -0.892019691377E+03   -0.17641E-04   -0.70044E-04 13808   0.409E-02    0.110E-01
DAV:   6    -0.892019635993E+03    0.55383E-04   -0.26252E-04 13216   0.285E-02
  75 F= -.89201964E+03 E0= -.89197535E+03  d E =-.982929E-03  mag=    -0.0000
       N       E                     dE             d eps       ncg     rms          rms(c)
DAV:   1    -0.892019069759E+03    0.62162E-03   -0.19650E-01 20608   0.808E-01    0.163E-01
DAV:   2    -0.892019642351E+03   -0.57259E-03   -0.62132E-03 20960   0.115E-01    0.912E-02
DAV:   3    -0.892019659483E+03   -0.17132E-04   -0.23117E-04 18384   0.296E-02    0.798E-02
DAV:   4    -0.892019650038E+03    0.94453E-05   -0.13077E-04 13088   0.218E-02    0.538E-02
DAV:   5    -0.892019655647E+03   -0.56094E-05   -0.71054E-05 13216   0.171E-02    0.344E-02
DAV:   6    -0.892019652418E+03    0.32288E-05   -0.31735E-05 13184   0.118E-02
  76 F= -.89201965E+03 E0= -.89197537E+03  d E =-.999354E-03  mag=    -0.0000
       N       E                     dE             d eps       ncg     rms          rms(c)
DAV:   1    -0.892019968859E+03   -0.31321E-03   -0.79088E-02 20672   0.533E-01    0.150E-01
DAV:   2    -0.892020370417E+03   -0.40156E-03   -0.45768E-03 22560   0.103E-01    0.968E-02
DAV:   3    -0.892020379928E+03   -0.95115E-05   -0.18447E-04 14480   0.272E-02    0.723E-02
DAV:   4    -0.892020393965E+03   -0.14037E-04   -0.23605E-04 13088   0.258E-02    0.855E-02
DAV:   5    -0.892020378537E+03    0.15428E-04   -0.17327E-04 12672   0.213E-02    0.454E-02
DAV:   6    -0.892020373976E+03    0.45618E-05   -0.71342E-05 12800   0.140E-02
  77 F= -.89202037E+03 E0= -.89197604E+03  d E =-.721557E-03  mag=    -0.0000
       N       E                     dE             d eps       ncg     rms          rms(c)
DAV:   1    -0.892019275161E+03    0.11034E-02   -0.32768E-01 20640   0.109E+00    0.308E-01
DAV:   2    -0.892020943616E+03   -0.16685E-02   -0.19067E-02 22704   0.209E-01    0.187E-01
DAV:   3    -0.892020961659E+03   -0.18043E-04   -0.57021E-04 22720   0.498E-02    0.119E-01
DAV:   4    -0.892021047282E+03   -0.85622E-04   -0.53022E-04 14976   0.388E-02    0.159E-01
DAV:   5    -0.892020992231E+03    0.55051E-04   -0.61944E-04 13056   0.408E-02    0.839E-02
DAV:   6    -0.892020973111E+03    0.19120E-04   -0.26747E-04 12992   0.272E-02
  78 F= -.89202097E+03 E0= -.89197651E+03  d E =-.132069E-02  mag=    -0.0000
       N       E                     dE             d eps       ncg     rms          rms(c)
DAV:   1    -0.892021154590E+03   -0.16236E-03   -0.70430E-02 20672   0.503E-01    0.165E-01
DAV:   2    -0.892021384077E+03   -0.22949E-03   -0.25677E-03 21680   0.780E-02    0.915E-02
DAV:   3    -0.892021400838E+03   -0.16761E-04   -0.17204E-04 15808   0.271E-02    0.851E-02
DAV:   4    -0.892021393982E+03    0.68563E-05   -0.17049E-04 13312   0.267E-02    0.592E-02
DAV:   5    -0.892021392874E+03    0.11075E-05   -0.10129E-04 12800   0.192E-02    0.441E-02
DAV:   6    -0.892021383197E+03    0.96778E-05   -0.35525E-05 12768   0.120E-02
  79 F= -.89202138E+03 E0= -.89197696E+03  d E =-.410085E-03  mag=    -0.0000
       N       E                     dE             d eps       ncg     rms          rms(c)
DAV:   1    -0.892021297027E+03    0.95848E-04   -0.76671E-02 20736   0.524E-01    0.168E-01
DAV:   2    -0.892021558239E+03   -0.26121E-03   -0.28619E-03 21888   0.812E-02    0.116E-01
DAV:   3    -0.892021617739E+03   -0.59500E-04   -0.59594E-04 15392   0.364E-02    0.126E-01
DAV:   4    -0.892021560015E+03    0.57724E-04   -0.65966E-04 13088   0.370E-02    0.832E-02
DAV:   5    -0.892021561365E+03   -0.13500E-05   -0.22336E-04 12896   0.211E-02    0.523E-02
DAV:   6    -0.892021550710E+03    0.10655E-04   -0.86980E-05 12608   0.158E-02
  80 F= -.89202155E+03 E0= -.89197709E+03  d E =-.577598E-03  mag=    -0.0000
       N       E                     dE             d eps       ncg     rms          rms(c)
DAV:   1    -0.892021664494E+03   -0.10313E-03   -0.48532E-02 20640   0.416E-01    0.103E-01
DAV:   2    -0.892021822111E+03   -0.15762E-03   -0.18355E-03 23424   0.670E-02    0.746E-02
DAV:   3    -0.892021840178E+03   -0.18066E-04   -0.32062E-04 13888   0.258E-02    0.766E-02
DAV:   4    -0.892021816571E+03    0.23606E-04   -0.28252E-04 12800   0.239E-02    0.509E-02
DAV:   5    -0.892021820890E+03   -0.43187E-05   -0.82313E-05 12768   0.141E-02    0.354E-02
DAV:   6    -0.892021816263E+03    0.46268E-05   -0.36451E-05 12736   0.107E-02
  81 F= -.89202182E+03 E0= -.89197732E+03  d E =-.265553E-03  mag=    -0.0000
