       N       E                     dE             d eps       ncg     rms          rms(c)
DAV:   1     0.137591284145E+05    0.13759E+05   -0.59706E+05 23760   0.133E+03
DAV:   2     0.452549023418E+03   -0.13307E+05   -0.12656E+05 27200   0.552E+02
DAV:   3    -0.926775577954E+03   -0.13793E+04   -0.13463E+04 23680   0.162E+02
DAV:   4    -0.982913561629E+03   -0.56138E+02   -0.54783E+02 27392   0.406E+01
DAV:   5    -0.984647047009E+03   -0.17335E+01   -0.17028E+01 25760   0.638E+00
DAV:   6    -0.984722229328E+03   -0.75182E-01   -0.74786E-01 27440   0.144E+00
DAV:   7    -0.984725625937E+03   -0.33966E-02   -0.33910E-02 25520   0.255E-01
DAV:   8    -0.984725823536E+03   -0.19760E-03   -0.19742E-03 22944   0.619E-02    0.365E+02
DAV:   9    -0.619670344588E+03    0.36506E+03   -0.14519E+03 24784   0.609E+01    0.270E+02
DAV:  10    -0.682916357408E+03   -0.63246E+02   -0.62100E+02 26576   0.496E+01    0.274E+02
DAV:  11    -0.584185095281E+03    0.98731E+02   -0.17901E+02 26064   0.265E+01    0.112E+02
DAV:  12    -0.607914913499E+03   -0.23730E+02   -0.51964E+02 24640   0.342E+01    0.268E+02
DAV:  13    -0.522987846475E+03    0.84927E+02   -0.13965E+02 24352   0.163E+01    0.105E+02
DAV:  14    -0.513486873607E+03    0.95010E+01   -0.77365E+01 22864   0.125E+01    0.595E+01
DAV:  15    -0.505655600682E+03    0.78313E+01   -0.49463E+01 23504   0.879E+00    0.529E+01
DAV:  16    -0.533028042536E+03   -0.27372E+02   -0.93640E+00 24064   0.530E+00    0.462E+01
DAV:  17    -0.563433350844E+03   -0.30405E+02   -0.98830E+00 24144   0.495E+00    0.367E+01
DAV:  18    -0.586118452787E+03   -0.22685E+02   -0.11662E+01 23328   0.466E+00    0.306E+01
DAV:  19    -0.589743852006E+03   -0.36254E+01   -0.69834E+00 23360   0.386E+00    0.252E+01
DAV:  20    -0.590145177660E+03   -0.40133E+00   -0.24756E+00 21984   0.220E+00    0.231E+01
DAV:  21    -0.600149241981E+03   -0.10004E+02   -0.90757E-01 22368   0.147E+00    0.215E+01
DAV:  22    -0.624517537968E+03   -0.24368E+02   -0.61303E+00 22592   0.310E+00    0.197E+01
DAV:  23    -0.644526476305E+03   -0.20009E+02   -0.12760E+01 22400   0.438E+00    0.233E+01
DAV:  24    -0.667971391697E+03   -0.23445E+02   -0.93161E+00 24224   0.363E+00    0.263E+01
DAV:  25    -0.697487259566E+03   -0.29516E+02   -0.13749E+01 22992   0.391E+00    0.263E+01
DAV:  26    -0.730521247510E+03   -0.33034E+02   -0.24117E+01 23248   0.507E+00    0.242E+01
DAV:  27    -0.761953030606E+03   -0.31432E+02   -0.29713E+01 22432   0.535E+00    0.204E+01
DAV:  28    -0.777771625727E+03   -0.15819E+02   -0.87968E+00 24688   0.328E+00    0.171E+01
DAV:  29    -0.786557837971E+03   -0.87862E+01   -0.13895E+00 23408   0.206E+00    0.106E+01
DAV:  30    -0.788598041956E+03   -0.20402E+01   -0.66235E-01 23104   0.152E+00    0.706E+00
DAV:  31    -0.789413652056E+03   -0.81561E+00   -0.28309E-01 24624   0.103E+00    0.521E+00
DAV:  32    -0.790238428071E+03   -0.82478E+00   -0.17698E-01 21712   0.751E-01    0.446E+00
DAV:  33    -0.790767857243E+03   -0.52943E+00   -0.74230E-02 23552   0.578E-01    0.352E+00
DAV:  34    -0.791651491204E+03   -0.88363E+00   -0.71489E-02 21296   0.458E-01    0.337E+00
DAV:  35    -0.793597787535E+03   -0.19463E+01   -0.10107E-01 21328   0.425E-01    0.318E+00
DAV:  36    -0.796132562410E+03   -0.25348E+01   -0.17588E-01 22336   0.530E-01    0.181E+00
DAV:  37    -0.798156254136E+03   -0.20237E+01   -0.10947E-01 22544   0.379E-01    0.151E+00
DAV:  38    -0.799703866600E+03   -0.15476E+01   -0.92807E-02 22512   0.333E-01    0.139E+00
DAV:  39    -0.800282544495E+03   -0.57868E+00   -0.17566E-02 24160   0.151E-01    0.134E+00
DAV:  40    -0.800544133465E+03   -0.26159E+00   -0.84644E-03 22256   0.102E-01    0.108E+00
DAV:  41    -0.800668524602E+03   -0.12439E+00   -0.27754E-03 21984   0.850E-02    0.944E-01
DAV:  42    -0.800696024448E+03   -0.27500E-01   -0.65242E-04 21632   0.504E-02    0.710E-01
DAV:  43    -0.800738133103E+03   -0.42109E-01   -0.41399E-04 19520   0.346E-02    0.568E-01
DAV:  44    -0.800763948103E+03   -0.25815E-01   -0.30991E-04 16928   0.335E-02    0.367E-01
DAV:  45    -0.800782008340E+03   -0.18060E-01   -0.49761E-04 19424   0.428E-02    0.129E-01
DAV:  46    -0.800802861985E+03   -0.20854E-01   -0.32530E-04 16784   0.363E-02    0.167E-01
DAV:  47    -0.800824430377E+03   -0.21568E-01   -0.31819E-04 18096   0.333E-02    0.290E-01
DAV:  48    -0.800861580007E+03   -0.37150E-01   -0.27226E-04 17344   0.301E-02    0.380E-01
DAV:  49    -0.800893191677E+03   -0.31612E-01   -0.11714E-04 15104   0.214E-02    0.356E-01
DAV:  50    -0.800925012619E+03   -0.31821E-01   -0.23055E-04 17936   0.267E-02    0.346E-01
DAV:  51    -0.800939629042E+03   -0.14616E-01   -0.10696E-04 15680   0.182E-02    0.286E-01
DAV:  52    -0.800947195981E+03   -0.75669E-02   -0.71149E-05 13712   0.164E-02    0.214E-01
DAV:  53    -0.800954662623E+03   -0.74666E-02   -0.17559E-04 16272   0.203E-02    0.110E-01
DAV:  54    -0.800953913955E+03    0.74867E-03   -0.84610E-05 14144   0.180E-02    0.312E-02
DAV:  55    -0.800957328020E+03   -0.34141E-02   -0.31354E-05 13536   0.122E-02    0.247E-02
DAV:  56    -0.800962270483E+03   -0.49425E-02   -0.33170E-05 13744   0.101E-02    0.207E-02
DAV:  57    -0.800965776838E+03   -0.35064E-02   -0.19101E-05 13584   0.899E-03    0.174E-02
DAV:  58    -0.800967509538E+03   -0.17327E-02   -0.12767E-05 13520   0.708E-03    0.157E-02
DAV:  59    -0.800968660401E+03   -0.11509E-02   -0.55162E-06 13568   0.533E-03    0.112E-02
DAV:  60    -0.800970118723E+03   -0.14583E-02   -0.66446E-06 13392   0.454E-03    0.103E-02
DAV:  61    -0.800970897407E+03   -0.77868E-03   -0.35458E-06 14048   0.405E-03    0.102E-02
DAV:  62    -0.800972156215E+03   -0.12588E-02   -0.41807E-06 13664   0.387E-03    0.898E-03
DAV:  63    -0.800973875967E+03   -0.17198E-02   -0.56898E-06 13568   0.475E-03    0.759E-03
DAV:  64    -0.800975005766E+03   -0.11298E-02   -0.39465E-06 13888   0.465E-03    0.574E-03
DAV:  65    -0.800976282661E+03   -0.12769E-02   -0.55757E-06 14048   0.502E-03    0.467E-03
DAV:  66    -0.800976979665E+03   -0.69700E-03   -0.36946E-06 13776   0.442E-03    0.389E-03
DAV:  67    -0.800977180738E+03   -0.20107E-03   -0.23379E-06 13760   0.315E-03    0.316E-03
DAV:  68    -0.800977286021E+03   -0.10528E-03   -0.16077E-06 13728   0.228E-03    0.270E-03
DAV:  69    -0.800977382721E+03   -0.96701E-04   -0.10149E-06 13648   0.189E-03
   1 F= -.80097738E+03 E0= -.80094673E+03  d E =-.800977E+03  mag=     0.0042
       N       E                     dE             d eps       ncg     rms          rms(c)
DAV:   1    -0.199168992040E+03    0.60181E+03   -0.43164E+04 24720   0.227E+02    0.989E+02
DAV:   2    -0.716690665558E+03   -0.51752E+03   -0.42602E+03 24288   0.876E+01    0.623E+02
DAV:   3    -0.697096687559E+03    0.19594E+02   -0.99357E+02 26304   0.722E+01    0.439E+02
DAV:   4    -0.784672047584E+03   -0.87575E+02   -0.49635E+02 29152   0.610E+01    0.343E+02
DAV:   5    -0.754364883043E+03    0.30307E+02   -0.32911E+02 29872   0.531E+01    0.348E+02
DAV:   6    -0.714522810406E+03    0.39842E+02   -0.30474E+02 28256   0.405E+01    0.209E+02
DAV:   7    -0.583271293662E+03    0.13125E+03   -0.18717E+02 27024   0.293E+01    0.170E+02
DAV:   8    -0.564087246395E+03    0.19184E+02   -0.47089E+01 25216   0.117E+01    0.149E+02
DAV:   9    -0.560338734886E+03    0.37485E+01   -0.96047E+00 25072   0.478E+00    0.136E+02
DAV:  10    -0.581212787921E+03   -0.20874E+02   -0.23180E+01 28896   0.844E+00    0.134E+02
DAV:  11    -0.561666373731E+03    0.19546E+02   -0.44449E+01 27040   0.113E+01    0.700E+01
DAV:  12    -0.555045865268E+03    0.66205E+01   -0.30973E+01 26656   0.120E+01    0.569E+01
DAV:  13    -0.546897416236E+03    0.81484E+01   -0.10026E+01 27040   0.640E+00    0.367E+01
DAV:  14    -0.546513106772E+03    0.38431E+00   -0.14329E+00 24576   0.203E+00    0.385E+01
DAV:  15    -0.546437542896E+03    0.75564E-01   -0.10523E+00 28112   0.199E+00    0.342E+01
DAV:  16    -0.545627835344E+03    0.80971E+00   -0.25694E+00 24704   0.193E+00    0.250E+01
DAV:  17    -0.545348661223E+03    0.27917E+00   -0.21841E+00 25072   0.105E+00    0.225E+01
DAV:  18    -0.544305586586E+03    0.10431E+01   -0.17990E+00 23648   0.134E+00    0.204E+01
DAV:  19    -0.538088331445E+03    0.62173E+01   -0.14804E+01 21296   0.255E+00    0.157E+01
DAV:  20    -0.534603078507E+03    0.34853E+01   -0.26055E+00 22032   0.168E+00    0.121E+01
DAV:  21    -0.544085715664E+03   -0.94826E+01   -0.20072E+00 24240   0.105E+00    0.967E+00
DAV:  22    -0.544723068181E+03   -0.63735E+00   -0.52351E-01 23456   0.637E-01    0.766E+00
DAV:  23    -0.544981506689E+03   -0.25844E+00   -0.44854E-02 24608   0.349E-01    0.630E+00
DAV:  24    -0.545464131996E+03   -0.48263E+00   -0.41008E-02 22528   0.350E-01    0.386E+00
DAV:  25    -0.545850077972E+03   -0.38595E+00   -0.38731E-02 23664   0.267E-01    0.241E+00
DAV:  26    -0.546330308160E+03   -0.48023E+00   -0.20207E-02 23472   0.224E-01    0.152E+00
DAV:  27    -0.546608104491E+03   -0.27780E+00   -0.19269E-02 22608   0.162E-01    0.114E+00
DAV:  28    -0.547044872969E+03   -0.43677E+00   -0.32374E-02 21184   0.184E-01    0.122E+00
DAV:  29    -0.547244168198E+03   -0.19930E+00   -0.84378E-03 21888   0.979E-02    0.102E+00
DAV:  30    -0.547428061217E+03   -0.18389E+00   -0.17478E-02 21536   0.156E-01    0.104E+00
DAV:  31    -0.547487943637E+03   -0.59882E-01   -0.96416E-03 22256   0.129E-01    0.109E+00
DAV:  32    -0.547603690636E+03   -0.11575E+00   -0.15837E-02 21680   0.153E-01    0.957E-01
DAV:  33    -0.548006080598E+03   -0.40239E+00   -0.31986E-02 21680   0.194E-01    0.792E-01
DAV:  34    -0.548176333736E+03   -0.17025E+00   -0.40124E-03 22192   0.905E-02    0.809E-01
DAV:  35    -0.548269790342E+03   -0.93457E-01   -0.62155E-03 21088   0.873E-02    0.619E-01
DAV:  36    -0.548404425505E+03   -0.13464E+00   -0.28758E-02 22496   0.157E-01    0.572E-01
DAV:  37    -0.548450736538E+03   -0.46311E-01   -0.31267E-03 22464   0.834E-02    0.659E-01
DAV:  38    -0.548463340420E+03   -0.12604E-01   -0.82906E-02 20672   0.173E-01    0.452E-01
DAV:  39    -0.548499940919E+03   -0.36600E-01   -0.17094E-02 22032   0.127E-01    0.486E-01
DAV:  40    -0.548143957697E+03    0.35598E+00   -0.12192E+00 20752   0.602E-01    0.399E-01
DAV:  41    -0.548424158403E+03   -0.28020E+00   -0.15091E-01 17296   0.214E-01    0.397E-01
DAV:  42    -0.548099995501E+03    0.32416E+00   -0.74561E-01 18784   0.471E-01    0.341E-01
DAV:  43    -0.548375902440E+03   -0.27591E+00   -0.15963E-02 20160   0.124E-01    0.221E-01
DAV:  44    -0.548599200613E+03   -0.22330E+00   -0.47345E-01 20576   0.237E-01    0.229E-01
DAV:  45    -0.548608275574E+03   -0.90750E-02   -0.55340E-02 17824   0.796E-02    0.218E-01
DAV:  46    -0.548608972843E+03   -0.69727E-03   -0.13340E-03 17808   0.281E-02    0.195E-01
DAV:  47    -0.548613069432E+03   -0.40966E-02   -0.98597E-04 16608   0.266E-02    0.134E-01
DAV:  48    -0.548618838264E+03   -0.57688E-02   -0.20480E-03 19968   0.466E-02    0.657E-02
DAV:  49    -0.548623270420E+03   -0.44322E-02   -0.48515E-04 17696   0.278E-02    0.687E-02
DAV:  50    -0.548625962142E+03   -0.26917E-02   -0.10963E-03 15952   0.288E-02    0.681E-02
DAV:  51    -0.548633668986E+03   -0.77068E-02   -0.82325E-04 14960   0.225E-02    0.570E-02
DAV:  52    -0.548639019644E+03   -0.53507E-02   -0.12292E-03 16528   0.212E-02    0.432E-02
DAV:  53    -0.548642620662E+03   -0.36010E-02   -0.40910E-04 16272   0.150E-02    0.334E-02
DAV:  54    -0.548646937220E+03   -0.43166E-02   -0.29759E-04 16096   0.149E-02    0.289E-02
DAV:  55    -0.548655849690E+03   -0.89125E-02   -0.45229E-04 16688   0.212E-02    0.365E-02
DAV:  56    -0.548664832209E+03   -0.89825E-02   -0.46124E-05 14688   0.142E-02    0.410E-02
DAV:  57    -0.548666631199E+03   -0.17990E-02   -0.78466E-04 15728   0.181E-02    0.233E-02
DAV:  58    -0.548677134575E+03   -0.10503E-01   -0.70995E-05 13824   0.150E-02    0.264E-02
DAV:  59    -0.548685139560E+03   -0.80050E-02   -0.42374E-05 13616   0.140E-02    0.298E-02
DAV:  60    -0.548688338754E+03   -0.31992E-02   -0.19862E-05 13680   0.106E-02    0.263E-02
DAV:  61    -0.548689780951E+03   -0.14422E-02   -0.17010E-05 13632   0.796E-03    0.184E-02
DAV:  62    -0.548689915463E+03   -0.13451E-03   -0.70723E-05 14800   0.811E-03    0.111E-02
DAV:  63    -0.548690344382E+03   -0.42892E-03   -0.77523E-06 13264   0.583E-03    0.811E-03
DAV:  64    -0.548690388804E+03   -0.44422E-04   -0.70228E-06 12944   0.363E-03
   2 F= -.54869039E+03 E0= -.54865609E+03  d E =0.252287E+03  mag=    -5.5690
       N       E                     dE             d eps       ncg     rms          rms(c)
DAV:   1    -0.301923421880E+03    0.24677E+03   -0.22117E+04 25936   0.161E+02    0.127E+03
DAV:   2    -0.900795980136E+03   -0.59887E+03   -0.48813E+03 26064   0.751E+01    0.584E+02
DAV:   3    -0.881829853738E+03    0.18966E+02   -0.60946E+02 25760   0.549E+01    0.518E+02
DAV:   4    -0.844557866261E+03    0.37272E+02   -0.21095E+02 26032   0.320E+01    0.408E+02
DAV:   5    -0.119665039195E+04   -0.35209E+03   -0.27067E+02 28640   0.577E+01    0.437E+02
DAV:   6    -0.111930955689E+04    0.77341E+02   -0.13885E+02 24112   0.209E+01    0.193E+02
DAV:   7    -0.829740474626E+03    0.28957E+03   -0.14054E+02 26704   0.243E+01    0.935E+01
DAV:   8    -0.805204137568E+03    0.24536E+02   -0.44629E+01 25856   0.116E+01    0.774E+01
DAV:   9    -0.804572304952E+03    0.63183E+00   -0.59190E+00 24192   0.430E+00    0.730E+01
DAV:  10    -0.812081012559E+03   -0.75087E+01   -0.48612E+00 25792   0.429E+00    0.665E+01
DAV:  11    -0.803784314379E+03    0.82967E+01   -0.54227E+00 24208   0.490E+00    0.514E+01
DAV:  12    -0.803365438122E+03    0.41888E+00   -0.75839E+00 24224   0.436E+00    0.258E+01
DAV:  13    -0.803103822465E+03    0.26162E+00   -0.10994E+00 23104   0.210E+00    0.254E+01
DAV:  14    -0.803097969249E+03    0.58532E-02   -0.41247E-01 25680   0.122E+00    0.223E+01
DAV:  15    -0.803071945778E+03    0.26023E-01   -0.18343E-01 22560   0.815E-01    0.170E+01
DAV:  16    -0.803402160636E+03   -0.33021E+00   -0.17795E-01 25488   0.829E-01    0.142E+01
DAV:  17    -0.803636670260E+03   -0.23451E+00   -0.69723E-02 23184   0.503E-01    0.983E+00
DAV:  18    -0.803765169302E+03   -0.12850E+00   -0.21024E-02 25984   0.309E-01    0.845E+00
DAV:  19    -0.804114132216E+03   -0.34896E+00   -0.27054E-02 25088   0.347E-01    0.602E+00
DAV:  20    -0.804681562369E+03   -0.56743E+00   -0.30111E-02 23872   0.328E-01    0.394E+00
DAV:  21    -0.805077797115E+03   -0.39623E+00   -0.20622E-02 25904   0.269E-01    0.191E+00
DAV:  22    -0.805167969131E+03   -0.90172E-01   -0.42283E-03 25360   0.136E-01    0.157E+00
DAV:  23    -0.805241474592E+03   -0.73505E-01   -0.26359E-03 22768   0.970E-02    0.696E-01
DAV:  24    -0.805307204426E+03   -0.65730E-01   -0.39097E-03 22352   0.109E-01    0.870E-01
DAV:  25    -0.805324593867E+03   -0.17389E-01   -0.13033E-03 23872   0.592E-02    0.104E+00
DAV:  26    -0.805386644668E+03   -0.62051E-01   -0.11585E-03 20624   0.501E-02    0.115E+00
DAV:  27    -0.805603766530E+03   -0.21712E+00   -0.55134E-03 21872   0.986E-02    0.585E-01
DAV:  28    -0.805797007839E+03   -0.19324E+00   -0.60971E-03 21872   0.866E-02    0.528E-01
DAV:  29    -0.805881808394E+03   -0.84801E-01   -0.14441E-03 23488   0.514E-02    0.439E-01
DAV:  30    -0.806141745454E+03   -0.25994E+00   -0.12139E-02 22624   0.153E-01    0.420E-01
DAV:  31    -0.806154022285E+03   -0.12277E-01   -0.63457E-04 22144   0.382E-02    0.328E-01
DAV:  32    -0.806193809388E+03   -0.39787E-01   -0.66715E-04 21584   0.533E-02    0.357E-01
DAV:  33    -0.806202957020E+03   -0.91476E-02   -0.39080E-04 18640   0.372E-02    0.348E-01
DAV:  34    -0.806218092231E+03   -0.15135E-01   -0.23864E-04 16912   0.326E-02    0.394E-01
DAV:  35    -0.806286598412E+03   -0.68506E-01   -0.14193E-03 22752   0.789E-02    0.384E-01
DAV:  36    -0.806238029235E+03    0.48569E-01   -0.11419E-03 22672   0.698E-02    0.393E-01
DAV:  37    -0.806219874480E+03    0.18155E-01   -0.22317E-04 16416   0.343E-02    0.331E-01
DAV:  38    -0.806194560853E+03    0.25314E-01   -0.29148E-04 16944   0.346E-02    0.178E-01
DAV:  39    -0.806193629913E+03    0.93094E-03   -0.67985E-05 14704   0.187E-02    0.128E-01
DAV:  40    -0.806205312255E+03   -0.11682E-01   -0.49858E-05 13952   0.154E-02    0.134E-01
DAV:  41    -0.806228425837E+03   -0.23114E-01   -0.11625E-04 15536   0.192E-02    0.161E-01
DAV:  42    -0.806255919967E+03   -0.27494E-01   -0.14644E-04 15440   0.241E-02    0.144E-01
DAV:  43    -0.806282714810E+03   -0.26795E-01   -0.16700E-04 15120   0.275E-02    0.146E-01
DAV:  44    -0.806299045023E+03   -0.16330E-01   -0.90124E-05 14864   0.234E-02    0.829E-02
DAV:  45    -0.806310240933E+03   -0.11196E-01   -0.46276E-05 14080   0.175E-02    0.466E-02
DAV:  46    -0.806319907105E+03   -0.96662E-02   -0.55873E-05 13552   0.183E-02    0.105E-01
DAV:  47    -0.806325650077E+03   -0.57430E-02   -0.47715E-05 13824   0.157E-02    0.336E-02
DAV:  48    -0.806332823484E+03   -0.71734E-02   -0.57507E-05 14176   0.151E-02    0.283E-02
DAV:  49    -0.806339127314E+03   -0.63038E-02   -0.73250E-05 14640   0.162E-02    0.292E-02
DAV:  50    -0.806342066809E+03   -0.29395E-02   -0.30735E-05 14384   0.128E-02    0.232E-02
DAV:  51    -0.806344269240E+03   -0.22024E-02   -0.20303E-05 13616   0.112E-02    0.172E-02
DAV:  52    -0.806345156544E+03   -0.88730E-03   -0.11885E-05 13904   0.845E-03    0.872E-03
DAV:  53    -0.806345501700E+03   -0.34516E-03   -0.11367E-05 13616   0.671E-03    0.671E-03
DAV:  54    -0.806345740432E+03   -0.23873E-03   -0.67317E-06 13904   0.504E-03    0.426E-03
DAV:  55    -0.806345940106E+03   -0.19967E-03   -0.53991E-06 13552   0.420E-03    0.229E-03
DAV:  56    -0.806345996222E+03   -0.56115E-04   -0.33170E-06 13392   0.319E-03
   3 F= -.80634600E+03 E0= -.80630289E+03  d E =-.536861E+01  mag=    -0.0096
       N       E                     dE             d eps       ncg     rms          rms(c)
DAV:   1    -0.810109401737E+03   -0.37635E+01   -0.75223E+02 19712   0.377E+01    0.334E+01
DAV:   2    -0.817265442186E+03   -0.71560E+01   -0.71781E+01 23168   0.107E+01    0.308E+01
DAV:   3    -0.817363886795E+03   -0.98445E-01   -0.81922E+00 25408   0.560E+00    0.190E+01
DAV:   4    -0.818881932768E+03   -0.15180E+01   -0.64636E+00 29088   0.585E+00    0.303E+01
DAV:   5    -0.817453415046E+03    0.14285E+01   -0.68455E+00 27664   0.414E+00    0.203E+01
DAV:   6    -0.816116844998E+03    0.13366E+01   -0.19291E+00 27984   0.315E+00    0.529E+00
DAV:   7    -0.816063090729E+03    0.53754E-01   -0.54028E-01 25296   0.152E+00    0.364E+00
DAV:   8    -0.816036333204E+03    0.26758E-01   -0.85179E-02 22256   0.605E-01    0.244E+00
DAV:   9    -0.816035194716E+03    0.11385E-02   -0.92735E-03 24464   0.225E-01    0.192E+00
DAV:  10    -0.816032920664E+03    0.22741E-02   -0.11683E-02 24848   0.219E-01    0.101E+00
DAV:  11    -0.816030231023E+03    0.26896E-02   -0.83607E-03 26480   0.208E-01    0.569E-01
DAV:  12    -0.816029595800E+03    0.63522E-03   -0.19095E-03 24240   0.919E-02    0.318E-01
DAV:  13    -0.816029340394E+03    0.25541E-03   -0.36678E-04 19248   0.425E-02    0.212E-01
DAV:  14    -0.816029106819E+03    0.23358E-03   -0.13152E-04 14336   0.272E-02    0.141E-01
DAV:  15    -0.816028852065E+03    0.25475E-03   -0.15389E-04 16576   0.240E-02    0.526E-02
DAV:  16    -0.816028849601E+03    0.24640E-05   -0.51307E-05 14592   0.152E-02
   4 F= -.81602885E+03 E0= -.81599333E+03  d E =-.150515E+02  mag=    -0.0075
       N       E                     dE             d eps       ncg     rms          rms(c)
DAV:   1    -0.796166745642E+03    0.19862E+02   -0.20898E+03 19792   0.640E+01    0.997E+01
DAV:   2    -0.821690605259E+03   -0.25524E+02   -0.27426E+02 21648   0.181E+01    0.358E+01
DAV:   3    -0.824704389906E+03   -0.30138E+01   -0.15949E+01 26224   0.989E+00    0.298E+01
DAV:   4    -0.821761834341E+03    0.29426E+01   -0.10216E+01 28640   0.801E+00    0.280E+01
DAV:   5    -0.821008837433E+03    0.75300E+00   -0.55980E+00 26592   0.361E+00    0.215E+01
DAV:   6    -0.820077982378E+03    0.93086E+00   -0.14564E+00 26608   0.257E+00    0.903E+00
DAV:   7    -0.820027433077E+03    0.50549E-01   -0.46803E-01 27376   0.156E+00    0.389E+00
DAV:   8    -0.820009772765E+03    0.17660E-01   -0.15259E-01 24032   0.850E-01    0.222E+00
DAV:   9    -0.819994666038E+03    0.15107E-01   -0.28508E-02 24736   0.474E-01    0.121E+00
DAV:  10    -0.819989025273E+03    0.56408E-02   -0.16769E-02 25408   0.305E-01    0.904E-01
DAV:  11    -0.819985729397E+03    0.32959E-02   -0.61441E-03 21920   0.158E-01    0.399E-01
DAV:  12    -0.819983437565E+03    0.22918E-02   -0.13679E-03 25920   0.865E-02    0.215E-01
DAV:  13    -0.819981902293E+03    0.15353E-02   -0.47552E-04 20592   0.551E-02    0.190E-01
DAV:  14    -0.819981009303E+03    0.89299E-03   -0.28387E-04 16032   0.415E-02    0.148E-01
DAV:  15    -0.819979905646E+03    0.11037E-02   -0.23685E-04 17776   0.307E-02    0.701E-02
DAV:  16    -0.819978835428E+03    0.10702E-02   -0.22486E-04 18528   0.210E-02    0.537E-02
DAV:  17    -0.819977223188E+03    0.16122E-02   -0.48226E-04 19424   0.309E-02    0.692E-02
DAV:  18    -0.819976398375E+03    0.82481E-03   -0.30678E-04 19488   0.232E-02    0.585E-02
DAV:  19    -0.819975214372E+03    0.11840E-02   -0.34149E-04 18928   0.226E-02    0.445E-02
DAV:  20    -0.819972348847E+03    0.28655E-02   -0.63093E-04 19936   0.280E-02    0.451E-02
DAV:  21    -0.819971923967E+03    0.42488E-03   -0.79761E-05 16192   0.148E-02    0.283E-02
DAV:  22    -0.819972165437E+03   -0.24147E-03   -0.70461E-05 14784   0.139E-02    0.244E-02
DAV:  23    -0.819972829518E+03   -0.66408E-03   -0.92553E-05 15920   0.127E-02    0.214E-02
DAV:  24    -0.819973501162E+03   -0.67164E-03   -0.37534E-05 14960   0.930E-03    0.188E-02
DAV:  25    -0.819974349578E+03   -0.84842E-03   -0.16725E-04 18240   0.113E-02    0.186E-02
DAV:  26    -0.819974333785E+03    0.15793E-04   -0.10934E-05 15152   0.607E-03
   5 F= -.81997433E+03 E0= -.81994285E+03  d E =-.189970E+02  mag=    -0.0013
       N       E                     dE             d eps       ncg     rms          rms(c)
DAV:   1    -0.818543528530E+03    0.14308E+01   -0.35882E+02 19936   0.265E+01    0.150E+01
DAV:   2    -0.822901164806E+03   -0.43576E+01   -0.34154E+01 22672   0.785E+00    0.232E+01
DAV:   3    -0.821102046840E+03    0.17991E+01   -0.46168E+00 24240   0.441E+00    0.110E+01
DAV:   4    -0.821440092243E+03   -0.33805E+00   -0.18310E+00 24528   0.254E+00    0.131E+01
DAV:   5    -0.821176525008E+03    0.26357E+00   -0.51418E-01 25376   0.146E+00    0.104E+01
DAV:   6    -0.820979709660E+03    0.19682E+00   -0.39633E-01 27328   0.136E+00    0.567E+00
DAV:   7    -0.820948584981E+03    0.31125E-01   -0.17697E-01 23344   0.821E-01    0.257E+00
DAV:   8    -0.820946763926E+03    0.18211E-02   -0.37590E-02 22544   0.415E-01    0.194E+00
DAV:   9    -0.820942484792E+03    0.42791E-02   -0.13410E-02 26544   0.277E-01    0.125E+00
DAV:  10    -0.820940748281E+03    0.17365E-02   -0.71111E-03 25408   0.183E-01    0.583E-01
DAV:  11    -0.820940536022E+03    0.21226E-03   -0.28581E-03 25312   0.133E-01    0.358E-01
DAV:  12    -0.820940809126E+03   -0.27310E-03   -0.96639E-04 23152   0.739E-02    0.200E-01
DAV:  13    -0.820941088925E+03   -0.27980E-03   -0.15077E-04 14736   0.319E-02    0.169E-01
DAV:  14    -0.820941324706E+03   -0.23578E-03   -0.10845E-04 14896   0.265E-02    0.107E-01
DAV:  15    -0.820941500628E+03   -0.17592E-03   -0.92391E-05 14496   0.211E-02    0.390E-02
DAV:  16    -0.820941653340E+03   -0.15271E-03   -0.31934E-05 14032   0.126E-02    0.268E-02
DAV:  17    -0.820941941472E+03   -0.28813E-03   -0.62473E-05 15072   0.101E-02    0.270E-02
DAV:  18    -0.820942402237E+03   -0.46076E-03   -0.13237E-04 16880   0.135E-02    0.285E-02
DAV:  19    -0.820942520914E+03   -0.11868E-03   -0.20132E-05 15136   0.806E-03    0.199E-02
DAV:  20    -0.820942914135E+03   -0.39322E-03   -0.15078E-04 17344   0.127E-02    0.168E-02
DAV:  21    -0.820943021586E+03   -0.10745E-03   -0.32654E-05 14672   0.804E-03    0.164E-02
DAV:  22    -0.820943100606E+03   -0.79021E-04   -0.17424E-05 14048   0.704E-03
   6 F= -.82094310E+03 E0= -.82091072E+03  d E =-.199657E+02  mag=    -0.0007
       N       E                     dE             d eps       ncg     rms          rms(c)
DAV:   1    -0.820997044353E+03   -0.54023E-01   -0.22641E+01 19968   0.673E+00    0.287E+00
DAV:   2    -0.821200940164E+03   -0.20390E+00   -0.17222E+00 23072   0.183E+00    0.467E+00
DAV:   3    -0.821127800007E+03    0.73140E-01   -0.18023E-01 23840   0.861E-01    0.167E+00
DAV:   4    -0.821152193872E+03   -0.24394E-01   -0.93279E-02 24512   0.548E-01    0.273E+00
DAV:   5    -0.821139548158E+03    0.12646E-01   -0.39368E-02 26816   0.461E-01    0.205E+00
DAV:   6    -0.821125551311E+03    0.13997E-01   -0.22178E-02 25888   0.358E-01    0.616E-01
DAV:   7    -0.821124810531E+03    0.74078E-03   -0.62694E-03 23616   0.162E-01    0.299E-01
DAV:   8    -0.821124679529E+03    0.13100E-03   -0.95093E-04 23104   0.672E-02    0.230E-01
DAV:   9    -0.821124680614E+03   -0.10847E-05   -0.97532E-05 13904   0.197E-02
   7 F= -.82112468E+03 E0= -.82109254E+03  d E =-.201473E+02  mag=    -0.0006
       N       E                     dE             d eps       ncg     rms          rms(c)
DAV:   1    -0.799374154676E+03    0.21751E+02   -0.36087E+03 20992   0.104E+02    0.628E+01
DAV:   2    -0.823693379236E+03   -0.24319E+02   -0.26833E+02 22192   0.214E+01    0.266E+01
DAV:   3    -0.825357050205E+03   -0.16637E+01   -0.11345E+01 25952   0.666E+00    0.295E+01
DAV:   4    -0.824084621003E+03    0.12724E+01   -0.89390E+00 26944   0.517E+00    0.226E+01
DAV:   5    -0.824104914023E+03   -0.20293E-01   -0.21967E+00 26464   0.353E+00    0.124E+01
DAV:   6    -0.824531962146E+03   -0.42705E+00   -0.41625E+00 28208   0.466E+00    0.144E+01
DAV:   7    -0.823360945980E+03    0.11710E+01   -0.10360E+00 25712   0.252E+00    0.277E+00
DAV:   8    -0.823366313532E+03   -0.53676E-02   -0.17169E-01 25440   0.714E-01    0.172E+00
DAV:   9    -0.823366523706E+03   -0.21017E-03   -0.26005E-02 22928   0.311E-01    0.108E+00
DAV:  10    -0.823366192508E+03    0.33120E-03   -0.58463E-03 26816   0.195E-01    0.685E-01
DAV:  11    -0.823365403018E+03    0.78949E-03   -0.30171E-03 26768   0.146E-01    0.330E-01
DAV:  12    -0.823365754795E+03   -0.35178E-03   -0.16753E-03 23248   0.919E-02    0.271E-01
DAV:  13    -0.823365505587E+03    0.24921E-03   -0.71355E-04 17472   0.595E-02    0.128E-01
DAV:  14    -0.823365609704E+03   -0.10412E-03   -0.10446E-04 13888   0.238E-02    0.921E-02
DAV:  15    -0.823365644159E+03   -0.34455E-04   -0.39391E-05 14016   0.158E-02
   8 F= -.82336564E+03 E0= -.82334124E+03  d E =-.224096E+01  mag=    -0.0004
       N       E                     dE             d eps       ncg     rms          rms(c)
DAV:   1    -0.822176706412E+03    0.11889E+01   -0.63726E+02 19968   0.440E+01    0.207E+01
DAV:   2    -0.825094941867E+03   -0.29182E+01   -0.32790E+01 24128   0.840E+00    0.108E+01
DAV:   3    -0.825157818677E+03   -0.62877E-01   -0.13599E+00 25504   0.284E+00    0.818E+00
DAV:   4    -0.825228324756E+03   -0.70506E-01   -0.14042E+00 27680   0.239E+00    0.840E+00
DAV:   5    -0.825117519826E+03    0.11080E+00   -0.79213E-01 25536   0.184E+00    0.567E+00
DAV:   6    -0.824980578273E+03    0.13694E+00   -0.50527E-01 27456   0.149E+00    0.297E+00
DAV:   7    -0.824948769865E+03    0.31808E-01   -0.13912E-01 23680   0.771E-01    0.176E+00
DAV:   8    -0.824939006593E+03    0.97633E-02   -0.33195E-02 25584   0.366E-01    0.514E-01
DAV:   9    -0.824938491246E+03    0.51535E-03   -0.43342E-03 24688   0.151E-01    0.389E-01
DAV:  10    -0.824938254850E+03    0.23640E-03   -0.17314E-03 23184   0.818E-02    0.268E-01
DAV:  11    -0.824937982230E+03    0.27262E-03   -0.72342E-04 20336   0.611E-02    0.989E-02
DAV:  12    -0.824938015296E+03   -0.33066E-04   -0.12584E-04 13856   0.267E-02
   9 F= -.82493802E+03 E0= -.82491173E+03  d E =-.381333E+01  mag=    -0.0004
       N       E                     dE             d eps       ncg     rms          rms(c)
DAV:   1    -0.819014257484E+03    0.59237E+01   -0.95329E+02 19984   0.545E+01    0.282E+01
DAV:   2    -0.825577386112E+03   -0.65631E+01   -0.79987E+01 23328   0.137E+01    0.134E+01
DAV:   3    -0.825532718672E+03    0.44667E-01   -0.30745E+00 26368   0.397E+00    0.109E+01
DAV:   4    -0.825475896530E+03    0.56822E-01   -0.43172E-01 26016   0.165E+00    0.907E+00
DAV:   5    -0.825480430954E+03   -0.45344E-02   -0.35868E-01 28992   0.129E+00    0.646E+00
DAV:   6    -0.825441046965E+03    0.39384E-01   -0.34820E-01 26320   0.129E+00    0.298E+00
DAV:   7    -0.825414229930E+03    0.26817E-01   -0.13728E-01 23008   0.688E-01    0.127E+00
DAV:   8    -0.825408954388E+03    0.52755E-02   -0.22262E-02 24144   0.341E-01    0.817E-01
DAV:   9    -0.825407653733E+03    0.13007E-02   -0.69706E-03 26336   0.204E-01    0.571E-01
DAV:  10    -0.825406999824E+03    0.65391E-03   -0.41144E-03 24496   0.154E-01    0.419E-01
DAV:  11    -0.825406270330E+03    0.72949E-03   -0.11735E-03 22272   0.892E-02    0.145E-01
DAV:  12    -0.825406309683E+03   -0.39353E-04   -0.40571E-04 19760   0.437E-02
  10 F= -.82540631E+03 E0= -.82538076E+03  d E =-.468294E+00  mag=    -0.0003
       N       E                     dE             d eps       ncg     rms          rms(c)
DAV:   1    -0.824897456049E+03    0.50881E+00   -0.18554E+02 19744   0.245E+01    0.935E+00
DAV:   2    -0.825977388045E+03   -0.10799E+01   -0.12921E+01 22608   0.524E+00    0.562E+00
DAV:   3    -0.826072569367E+03   -0.95181E-01   -0.71384E-01 26960   0.202E+00    0.596E+00
DAV:   4    -0.825952158745E+03    0.12041E+00   -0.44054E-01 27184   0.137E+00    0.371E+00
DAV:   5    -0.825946347461E+03    0.58113E-02   -0.99355E-02 25520   0.758E-01    0.268E+00
DAV:   6    -0.825927861860E+03    0.18486E-01   -0.68532E-02 23648   0.550E-01    0.116E+00
DAV:   7    -0.825924707580E+03    0.31543E-02   -0.21430E-02 27136   0.351E-01    0.598E-01
DAV:   8    -0.825924198786E+03    0.50879E-03   -0.61936E-03 23216   0.167E-01    0.476E-01
DAV:   9    -0.825923820232E+03    0.37855E-03   -0.10054E-03 23104   0.755E-02    0.373E-01
DAV:  10    -0.825923425193E+03    0.39504E-03   -0.49465E-04 18384   0.513E-02    0.161E-01
DAV:  11    -0.825923396294E+03    0.28899E-04   -0.22909E-04 14464   0.340E-02
  11 F= -.82592340E+03 E0= -.82589773E+03  d E =-.985381E+00  mag=    -0.0002
       N       E                     dE             d eps       ncg     rms          rms(c)
DAV:   1    -0.825052555553E+03    0.87087E+00   -0.28508E+02 19712   0.318E+01    0.104E+01
DAV:   2    -0.826504223191E+03   -0.14517E+01   -0.16858E+01 21856   0.614E+00    0.815E+00
DAV:   3    -0.826497493774E+03    0.67294E-02   -0.89050E-01 26640   0.209E+00    0.578E+00
DAV:   4    -0.826587357193E+03   -0.89863E-01   -0.52083E-01 29328   0.169E+00    0.795E+00
DAV:   5    -0.826462745399E+03    0.12461E+00   -0.27624E-01 26496   0.108E+00    0.465E+00
DAV:   6    -0.826430096051E+03    0.32649E-01   -0.24896E-01 24176   0.105E+00    0.231E+00
DAV:   7    -0.826410119194E+03    0.19977E-01   -0.83530E-02 27088   0.699E-01    0.129E+00
DAV:   8    -0.826401856528E+03    0.82627E-02   -0.16097E-02 22960   0.305E-01    0.514E-01
DAV:   9    -0.826401642955E+03    0.21357E-03   -0.24938E-03 22976   0.108E-01    0.361E-01
DAV:  10    -0.826401771098E+03   -0.12814E-03   -0.58075E-04 21264   0.496E-02    0.305E-01
DAV:  11    -0.826401828273E+03   -0.57175E-04   -0.47494E-04 19584   0.513E-02
  12 F= -.82640183E+03 E0= -.82637865E+03  d E =-.478432E+00  mag=    -0.0002
       N       E                     dE             d eps       ncg     rms          rms(c)
DAV:   1    -0.826389644554E+03    0.12127E-01   -0.56812E+00 19968   0.450E+00    0.159E+00
DAV:   2    -0.826417731160E+03   -0.28087E-01   -0.32056E-01 21248   0.847E-01    0.119E+00
DAV:   3    -0.826420147306E+03   -0.24161E-02   -0.23529E-02 26336   0.355E-01    0.100E+00
DAV:   4    -0.826419835521E+03    0.31178E-03   -0.20902E-02 28080   0.320E-01    0.110E+00
DAV:   5    -0.826417138443E+03    0.26971E-02   -0.67942E-03 25328   0.210E-01    0.636E-01
DAV:   6    -0.826416221063E+03    0.91738E-03   -0.40585E-03 23712   0.134E-01    0.233E-01
DAV:   7    -0.826416144981E+03    0.76081E-04   -0.10353E-03 22512   0.746E-02    0.153E-01
DAV:   8    -0.826416027871E+03    0.11711E-03   -0.25267E-04 14048   0.429E-02    0.589E-02
DAV:   9    -0.826416051123E+03   -0.23252E-04   -0.55107E-05 13776   0.221E-02
  13 F= -.82641605E+03 E0= -.82639243E+03  d E =-.492655E+00  mag=    -0.0002
       N       E                     dE             d eps       ncg     rms          rms(c)
DAV:   1    -0.826058505412E+03    0.35752E+00   -0.92772E+01 19712   0.180E+01    0.573E+00
DAV:   2    -0.826554490419E+03   -0.49599E+00   -0.56564E+00 21472   0.345E+00    0.327E+00
DAV:   3    -0.826560364575E+03   -0.58742E-02   -0.19188E-01 26880   0.961E-01    0.239E+00
DAV:   4    -0.826567913981E+03   -0.75494E-02   -0.97781E-02 26976   0.625E-01    0.215E+00
DAV:   5    -0.826559616089E+03    0.82979E-02   -0.68382E-02 24672   0.545E-01    0.164E+00
DAV:   6    -0.826553590701E+03    0.60254E-02   -0.34381E-02 24672   0.395E-01    0.900E-01
DAV:   7    -0.826550739263E+03    0.28514E-02   -0.90926E-03 24816   0.237E-01    0.482E-01
DAV:   8    -0.826549866937E+03    0.87233E-03   -0.24282E-03 23008   0.108E-01    0.161E-01
DAV:   9    -0.826549754496E+03    0.11244E-03   -0.37304E-04 16992   0.478E-02    0.936E-02
DAV:  10    -0.826549758342E+03   -0.38459E-05   -0.12742E-04 14336   0.273E-02
  14 F= -.82654976E+03 E0= -.82652799E+03  d E =-.133707E+00  mag=    -0.0002
       N       E                     dE             d eps       ncg     rms          rms(c)
DAV:   1    -0.826543302767E+03    0.64517E-02   -0.19799E+00 20128   0.263E+00    0.858E-01
DAV:   2    -0.826553577287E+03   -0.10275E-01   -0.11871E-01 21440   0.502E-01    0.477E-01
DAV:   3    -0.826553741827E+03   -0.16454E-03   -0.36608E-03 25056   0.135E-01    0.323E-01
DAV:   4    -0.826554126195E+03   -0.38437E-03   -0.17511E-03 23968   0.107E-01    0.391E-01
DAV:   5    -0.826554089881E+03    0.36313E-04   -0.14490E-03 20480   0.988E-02    0.297E-01
DAV:   6    -0.826553742643E+03    0.34724E-03   -0.82113E-04 17344   0.711E-02    0.983E-02
DAV:   7    -0.826553723339E+03    0.19304E-04   -0.17239E-04 13520   0.323E-02
  15 F= -.82655372E+03 E0= -.82653178E+03  d E =-.137672E+00  mag=    -0.0001
       N       E                     dE             d eps       ncg     rms          rms(c)
DAV:   1    -0.826466154638E+03    0.87588E-01   -0.48097E+01 19712   0.131E+01    0.275E+00
DAV:   2    -0.826678269688E+03   -0.21212E+00   -0.23325E+00 21088   0.221E+00    0.195E+00
DAV:   3    -0.826679340085E+03   -0.10704E-02   -0.76833E-02 25952   0.567E-01    0.142E+00
DAV:   4    -0.826675802418E+03    0.35377E-02   -0.27399E-02 25280   0.391E-01    0.128E+00
DAV:   5    -0.826678680513E+03   -0.28781E-02   -0.17606E-02 25216   0.316E-01    0.122E+00
DAV:   6    -0.826673067118E+03    0.56134E-02   -0.10918E-02 24640   0.264E-01    0.343E-01
DAV:   7    -0.826673380937E+03   -0.31382E-03   -0.25509E-03 22240   0.104E-01    0.230E-01
DAV:   8    -0.826673149060E+03    0.23188E-03   -0.62516E-04 18432   0.553E-02    0.111E-01
DAV:   9    -0.826673129294E+03    0.19766E-04   -0.12261E-04 12768   0.273E-02
  16 F= -.82667313E+03 E0= -.82665091E+03  d E =-.119406E+00  mag=    -0.0001
       N       E                     dE             d eps       ncg     rms          rms(c)
DAV:   1    -0.826409381137E+03    0.26377E+00   -0.78452E+01 19712   0.168E+01    0.349E+00
DAV:   2    -0.826758333924E+03   -0.34895E+00   -0.38289E+00 21008   0.284E+00    0.248E+00
DAV:   3    -0.826761048525E+03   -0.27146E-02   -0.13455E-01 25824   0.733E-01    0.187E+00
DAV:   4    -0.826753586918E+03    0.74616E-02   -0.47289E-02 25280   0.501E-01    0.160E+00
DAV:   5    -0.826758372019E+03   -0.47851E-02   -0.28651E-02 25440   0.387E-01    0.155E+00
DAV:   6    -0.826749324085E+03    0.90479E-02   -0.17523E-02 24400   0.338E-01    0.454E-01
DAV:   7    -0.826749992665E+03   -0.66858E-03   -0.44946E-03 23120   0.137E-01    0.303E-01
DAV:   8    -0.826749588363E+03    0.40430E-03   -0.11683E-03 22592   0.725E-02    0.143E-01
DAV:   9    -0.826749547981E+03    0.40382E-04   -0.19617E-04 13440   0.317E-02
  17 F= -.82674955E+03 E0= -.82672706E+03  d E =-.195825E+00  mag=    -0.0001
       N       E                     dE             d eps       ncg     rms          rms(c)
DAV:   1    -0.826776733564E+03   -0.27145E-01   -0.14041E+01 19712   0.696E+00    0.140E+00
DAV:   2    -0.826823825802E+03   -0.47092E-01   -0.52369E-01 21408   0.104E+00    0.894E-01
DAV:   3    -0.826824467421E+03   -0.64162E-03   -0.17301E-02 26080   0.253E-01    0.648E-01
DAV:   4    -0.826824647435E+03   -0.18001E-03   -0.98894E-03 26720   0.220E-01    0.761E-01
DAV:   5    -0.826824376605E+03    0.27083E-03   -0.57265E-03 24576   0.172E-01    0.599E-01
DAV:   6    -0.826822968299E+03    0.14083E-02   -0.30598E-03 24544   0.133E-01    0.143E-01
DAV:   7    -0.826822970689E+03   -0.23902E-05   -0.51564E-04 18784   0.503E-02
  18 F= -.82682297E+03 E0= -.82680034E+03  d E =-.734227E-01  mag=    -0.0001
       N       E                     dE             d eps       ncg     rms          rms(c)
DAV:   1    -0.826685007375E+03    0.13796E+00   -0.58961E+01 19712   0.143E+01    0.278E+00
DAV:   2    -0.826885773197E+03   -0.20077E+00   -0.22172E+00 21280   0.215E+00    0.188E+00
DAV:   3    -0.826888936212E+03   -0.31630E-02   -0.85235E-02 25984   0.557E-01    0.145E+00
DAV:   4    -0.826885609507E+03    0.33267E-02   -0.44574E-02 26048   0.456E-01    0.145E+00
DAV:   5    -0.826886517427E+03   -0.90792E-03   -0.23076E-02 25504   0.330E-01    0.127E+00
DAV:   6    -0.826880184649E+03    0.63328E-02   -0.13413E-02 24960   0.286E-01    0.329E-01
DAV:   7    -0.826880266138E+03   -0.81489E-04   -0.25196E-03 21728   0.112E-01    0.194E-01
DAV:   8    -0.826880195044E+03    0.71093E-04   -0.67980E-04 19296   0.567E-02
  19 F= -.82688020E+03 E0= -.82685729E+03  d E =-.130647E+00  mag=    -0.0001
       N       E                     dE             d eps       ncg     rms          rms(c)
DAV:   1    -0.826854355846E+03    0.25910E-01   -0.16856E+01 19712   0.755E+00    0.147E+00
DAV:   2    -0.826912730692E+03   -0.58375E-01   -0.63971E-01 20416   0.114E+00    0.931E-01
DAV:   3    -0.826913096175E+03   -0.36548E-03   -0.18681E-02 24768   0.273E-01    0.645E-01
DAV:   4    -0.826912786804E+03    0.30937E-03   -0.77990E-03 24736   0.197E-01    0.632E-01
DAV:   5    -0.826913627297E+03   -0.84049E-03   -0.57950E-03 23744   0.173E-01    0.641E-01
DAV:   6    -0.826912007623E+03    0.16197E-02   -0.33931E-03 24320   0.136E-01    0.152E-01
DAV:   7    -0.826912083175E+03   -0.75553E-04   -0.50473E-04 18736   0.477E-02
  20 F= -.82691208E+03 E0= -.82688926E+03  d E =-.318881E-01  mag=    -0.0001
       N       E                     dE             d eps       ncg     rms          rms(c)
DAV:   1    -0.826791565047E+03    0.12044E+00   -0.44432E+01 19744   0.123E+01    0.233E+00
DAV:   2    -0.826947156874E+03   -0.15559E+00   -0.16982E+00 20416   0.187E+00    0.156E+00
DAV:   3    -0.826948394428E+03   -0.12376E-02   -0.61502E-02 25296   0.478E-01    0.121E+00
DAV:   4    -0.826944512895E+03    0.38815E-02   -0.20749E-02 24640   0.320E-01    0.951E-01
DAV:   5    -0.826948658122E+03   -0.41452E-02   -0.14348E-02 25024   0.262E-01    0.112E+00
DAV:   6    -0.826944013833E+03    0.46443E-02   -0.92522E-03 24384   0.236E-01    0.276E-01
DAV:   7    -0.826944273959E+03   -0.26013E-03   -0.16672E-03 21376   0.903E-02    0.173E-01
DAV:   8    -0.826944175094E+03    0.98865E-04   -0.47634E-04 16544   0.520E-02
  21 F= -.82694418E+03 E0= -.82692136E+03  d E =-.639800E-01  mag=    -0.0001
       N       E                     dE             d eps       ncg     rms          rms(c)
DAV:   1    -0.826309941623E+03    0.63433E+00   -0.17770E+02 19712   0.246E+01    0.446E+00
DAV:   2    -0.826952942151E+03   -0.64300E+00   -0.69732E+00 20512   0.388E+00    0.320E+00
DAV:   3    -0.826955192771E+03   -0.22506E-02   -0.28449E-01 25408   0.975E-01    0.252E+00
DAV:   4    -0.826939546433E+03    0.15646E-01   -0.11247E-01 25168   0.627E-01    0.198E+00
DAV:   5    -0.826949841520E+03   -0.10295E-01   -0.50650E-02 26144   0.470E-01    0.213E+00
DAV:   6    -0.826936004107E+03    0.13837E-01   -0.36272E-02 24256   0.458E-01    0.639E-01
DAV:   7    -0.826936618624E+03   -0.61452E-03   -0.74864E-03 22400   0.190E-01    0.337E-01
DAV:   8    -0.826936264945E+03    0.35368E-03   -0.19142E-03 24288   0.104E-01    0.237E-01
DAV:   9    -0.826936157375E+03    0.10757E-03   -0.66294E-04 20080   0.552E-02    0.139E-01
DAV:  10    -0.826936077957E+03    0.79418E-04   -0.17616E-04 14528   0.374E-02
  22 F= -.82693608E+03 E0= -.82691337E+03  d E =-.558829E-01  mag=    -0.0001
       N       E                     dE             d eps       ncg     rms          rms(c)
DAV:   1    -0.826720010821E+03    0.21615E+00   -0.67350E+01 19712   0.152E+01    0.341E+00
DAV:   2    -0.826953751192E+03   -0.23374E+00   -0.25651E+00 20512   0.230E+00    0.187E+00
DAV:   3    -0.826956823689E+03   -0.30725E-02   -0.84601E-02 26304   0.598E-01    0.130E+00
DAV:   4    -0.826954223406E+03    0.26003E-02   -0.32650E-02 26624   0.372E-01    0.115E+00
DAV:   5    -0.826952982495E+03    0.12409E-02   -0.12653E-02 21888   0.256E-01    0.478E-01
DAV:   6    -0.826953594429E+03   -0.61193E-03   -0.59018E-03 24864   0.161E-01    0.491E-01
DAV:   7    -0.826952709763E+03    0.88467E-03   -0.23365E-03 23488   0.111E-01    0.176E-01
DAV:   8    -0.826952680382E+03    0.29380E-04   -0.39050E-04 15648   0.527E-02
  23 F= -.82695268E+03 E0= -.82693002E+03  d E =-.724853E-01  mag=    -0.0001
       N       E                     dE             d eps       ncg     rms          rms(c)
DAV:   1    -0.826950266957E+03    0.24428E-02   -0.69266E+00 19792   0.505E+00    0.121E+00
DAV:   2    -0.826980276882E+03   -0.30010E-01   -0.34386E-01 22016   0.903E-01    0.815E-01
DAV:   3    -0.826981377048E+03   -0.11002E-02   -0.13052E-02 25408   0.238E-01    0.742E-01
DAV:   4    -0.826981481083E+03   -0.10404E-03   -0.98501E-03 27264   0.215E-01    0.730E-01
DAV:   5    -0.826980476619E+03    0.10045E-02   -0.39446E-03 24608   0.154E-01    0.328E-01
DAV:   6    -0.826980357569E+03    0.11905E-03   -0.15850E-03 22976   0.897E-02    0.173E-01
DAV:   7    -0.826980271338E+03    0.86231E-04   -0.33109E-04 15488   0.429E-02
  24 F= -.82698027E+03 E0= -.82695782E+03  d E =-.275910E-01  mag=    -0.0000
       N       E                     dE             d eps       ncg     rms          rms(c)
DAV:   1    -0.826978099510E+03    0.22581E-02   -0.10529E+00 20032   0.198E+00    0.486E-01
DAV:   2    -0.826982590015E+03   -0.44905E-02   -0.52668E-02 21856   0.351E-01    0.282E-01
DAV:   3    -0.826982638600E+03   -0.48585E-04   -0.12734E-03 24288   0.639E-02    0.196E-01
DAV:   4    -0.826982796776E+03   -0.15818E-03   -0.43713E-04 15312   0.505E-02    0.204E-01
DAV:   5    -0.826982847367E+03   -0.50591E-04   -0.60503E-04 14272   0.587E-02    0.171E-01
DAV:   6    -0.826982728792E+03    0.11857E-03   -0.24564E-04 13344   0.409E-02    0.452E-02
DAV:   7    -0.826982733618E+03   -0.48264E-05   -0.44330E-05 12960   0.177E-02
  25 F= -.82698273E+03 E0= -.82696035E+03  d E =-.300532E-01  mag=    -0.0000
       N       E                     dE             d eps       ncg     rms          rms(c)
DAV:   1    -0.826985610360E+03   -0.28816E-02   -0.63878E+00 19920   0.473E+00    0.893E-01
DAV:   2    -0.827005648656E+03   -0.20038E-01   -0.22230E-01 21600   0.679E-01    0.664E-01
DAV:   3    -0.827005601286E+03    0.47370E-04   -0.79808E-03 26336   0.191E-01    0.502E-01
DAV:   4    -0.827006236766E+03   -0.63548E-03   -0.54315E-03 25648   0.162E-01    0.599E-01
DAV:   5    -0.827005783558E+03    0.45321E-03   -0.26470E-03 23776   0.118E-01    0.393E-01
DAV:   6    -0.827005598146E+03    0.18541E-03   -0.13424E-03 22272   0.886E-02    0.119E-01
DAV:   7    -0.827005605378E+03   -0.72313E-05   -0.28285E-04 15104   0.366E-02
  26 F= -.82700561E+03 E0= -.82698345E+03  d E =-.228718E-01  mag=    -0.0000
       N       E                     dE             d eps       ncg     rms          rms(c)
DAV:   1    -0.826974013587E+03    0.31585E-01   -0.14125E+01 19712   0.703E+00    0.133E+00
DAV:   2    -0.827018158331E+03   -0.44145E-01   -0.49168E-01 21792   0.101E+00    0.960E-01
DAV:   3    -0.827018233187E+03   -0.74856E-04   -0.16863E-02 26528   0.272E-01    0.717E-01
DAV:   4    -0.827019536611E+03   -0.13034E-02   -0.11359E-02 26576   0.231E-01    0.871E-01
DAV:   5    -0.827018943535E+03    0.59308E-03   -0.59860E-03 25216   0.174E-01    0.583E-01
DAV:   6    -0.827018341797E+03    0.60174E-03   -0.30273E-03 23904   0.132E-01    0.187E-01
DAV:   7    -0.827018354329E+03   -0.12532E-04   -0.67427E-04 19520   0.549E-02
  27 F= -.82701835E+03 E0= -.82699645E+03  d E =-.356207E-01  mag=    -0.0000
       N       E                     dE             d eps       ncg     rms          rms(c)
DAV:   1    -0.827019560593E+03   -0.12188E-02   -0.62652E+00 19904   0.492E+00    0.822E-01
DAV:   2    -0.827037819699E+03   -0.18259E-01   -0.20783E-01 21568   0.725E-01    0.526E-01
DAV:   3    -0.827037770599E+03    0.49100E-04   -0.61188E-03 25600   0.180E-01    0.359E-01
DAV:   4    -0.827038098677E+03   -0.32808E-03   -0.24615E-03 23584   0.116E-01    0.372E-01
DAV:   5    -0.827038710326E+03   -0.61165E-03   -0.25598E-03 21504   0.112E-01    0.392E-01
DAV:   6    -0.827038184356E+03    0.52597E-03   -0.10978E-03 20096   0.778E-02    0.899E-02
DAV:   7    -0.827038242849E+03   -0.58493E-04   -0.19722E-04 13664   0.386E-02
  28 F= -.82703824E+03 E0= -.82701620E+03  d E =-.198885E-01  mag=    -0.0000
       N       E                     dE             d eps       ncg     rms          rms(c)
DAV:   1    -0.826992158909E+03    0.46025E-01   -0.20022E+01 19776   0.879E+00    0.146E+00
DAV:   2    -0.827050867552E+03   -0.58709E-01   -0.66477E-01 21824   0.130E+00    0.960E-01
DAV:   3    -0.827050031429E+03    0.83612E-03   -0.19083E-02 25920   0.327E-01    0.612E-01
DAV:   4    -0.827051113291E+03   -0.10819E-02   -0.50891E-03 25680   0.189E-01    0.617E-01
DAV:   5    -0.827051947561E+03   -0.83427E-03   -0.38472E-03 23680   0.152E-01    0.376E-01
DAV:   6    -0.827052222866E+03   -0.27530E-03   -0.29370E-03 23456   0.125E-01    0.318E-01
DAV:   7    -0.827051733436E+03    0.48943E-03   -0.86701E-04 21248   0.746E-02    0.640E-02
DAV:   8    -0.827051732239E+03    0.11965E-05   -0.10024E-04 12832   0.229E-02
  29 F= -.82705173E+03 E0= -.82702952E+03  d E =-.333779E-01  mag=    -0.0000
       N       E                     dE             d eps       ncg     rms          rms(c)
DAV:   1    -0.827047812723E+03    0.39207E-02   -0.30413E+00 20000   0.352E+00    0.776E-01
DAV:   2    -0.827061219430E+03   -0.13407E-01   -0.15010E-01 20384   0.614E-01    0.624E-01
DAV:   3    -0.827061891963E+03   -0.67253E-03   -0.74391E-03 25184   0.210E-01    0.558E-01
DAV:   4    -0.827061034968E+03    0.85700E-03   -0.47018E-03 23904   0.156E-01    0.455E-01
DAV:   5    -0.827061375759E+03   -0.34079E-03   -0.18104E-03 20688   0.102E-01    0.366E-01
DAV:   6    -0.827060882355E+03    0.49340E-03   -0.90579E-04 20832   0.784E-02    0.885E-02
DAV:   7    -0.827060895791E+03   -0.13437E-04   -0.21240E-04 13952   0.383E-02
  30 F= -.82706090E+03 E0= -.82703858E+03  d E =-.916355E-02  mag=    -0.0000
       N       E                     dE             d eps       ncg     rms          rms(c)
DAV:   1    -0.827023655491E+03    0.37227E-01   -0.99772E+00 19904   0.638E+00    0.141E+00
DAV:   2    -0.827068570385E+03   -0.44915E-01   -0.49477E-01 20288   0.112E+00    0.117E+00
DAV:   3    -0.827070093687E+03   -0.15233E-02   -0.25912E-02 25952   0.381E-01    0.100E+00
DAV:   4    -0.827067555374E+03    0.25383E-02   -0.15481E-02 25680   0.281E-01    0.855E-01
DAV:   5    -0.827068348325E+03   -0.79295E-03   -0.64362E-03 25216   0.183E-01    0.687E-01
DAV:   6    -0.827066558772E+03    0.17896E-02   -0.31005E-03 24096   0.143E-01    0.165E-01
DAV:   7    -0.827066702402E+03   -0.14363E-03   -0.95746E-04 23680   0.728E-02    0.122E-01
DAV:   8    -0.827066638602E+03    0.63800E-04   -0.22245E-04 14912   0.326E-02
  31 F= -.82706664E+03 E0= -.82704403E+03  d E =-.149064E-01  mag=    -0.0000
       N       E                     dE             d eps       ncg     rms          rms(c)
DAV:   1    -0.827060458185E+03    0.62442E-02   -0.35397E+00 20000   0.386E+00    0.795E-01
DAV:   2    -0.827074687851E+03   -0.14230E-01   -0.15987E-01 20544   0.635E-01    0.516E-01
DAV:   3    -0.827074969793E+03   -0.28194E-03   -0.39406E-03 25152   0.151E-01    0.377E-01
DAV:   4    -0.827075061760E+03   -0.91967E-04   -0.18169E-03 23584   0.110E-01    0.390E-01
DAV:   5    -0.827075398684E+03   -0.33692E-03   -0.17306E-03 20560   0.101E-01    0.351E-01
DAV:   6    -0.827074913175E+03    0.48551E-03   -0.11446E-03 17808   0.744E-02    0.836E-02
DAV:   7    -0.827074916102E+03   -0.29265E-05   -0.15388E-04 12800   0.299E-02
  32 F= -.82707492E+03 E0= -.82705224E+03  d E =-.827750E-02  mag=    -0.0000
       N       E                     dE             d eps       ncg     rms          rms(c)
DAV:   1    -0.826957191264E+03    0.11772E+00   -0.31821E+01 19712   0.116E+01    0.235E+00
DAV:   2    -0.827087505467E+03   -0.13031E+00   -0.14388E+00 20544   0.191E+00    0.160E+00
DAV:   3    -0.827090073640E+03   -0.25682E-02   -0.41420E-02 26368   0.471E-01    0.123E+00
DAV:   4    -0.827088970857E+03    0.11028E-02   -0.23187E-02 26080   0.347E-01    0.123E+00
DAV:   5    -0.827092965256E+03   -0.39944E-02   -0.19414E-02 25696   0.305E-01    0.120E+00
DAV:   6    -0.827086875602E+03    0.60897E-02   -0.97883E-03 25248   0.234E-01    0.227E-01
DAV:   7    -0.827087369165E+03   -0.49356E-03   -0.19026E-03 23136   0.908E-02    0.186E-01
DAV:   8    -0.827087237642E+03    0.13152E-03   -0.43609E-04 16864   0.486E-02    0.102E-01
DAV:   9    -0.827087224369E+03    0.13273E-04   -0.83713E-05 13376   0.253E-02
  33 F= -.82708722E+03 E0= -.82706417E+03  d E =-.205858E-01  mag=    -0.0000
       N       E                     dE             d eps       ncg     rms          rms(c)
DAV:   1    -0.827074679783E+03    0.12558E-01   -0.59731E+00 19776   0.477E+00    0.112E+00
DAV:   2    -0.827095344122E+03   -0.20664E-01   -0.24215E-01 20816   0.795E-01    0.761E-01
DAV:   3    -0.827096517293E+03   -0.11732E-02   -0.97070E-03 25568   0.232E-01    0.671E-01
DAV:   4    -0.827096555205E+03   -0.37912E-04   -0.77659E-03 26464   0.208E-01    0.699E-01
DAV:   5    -0.827096771280E+03   -0.21607E-03   -0.58392E-03 25504   0.168E-01    0.553E-01
DAV:   6    -0.827095203134E+03    0.15681E-02   -0.25255E-03 24000   0.118E-01    0.128E-01
DAV:   7    -0.827095279631E+03   -0.76497E-04   -0.53332E-04 18192   0.456E-02
  34 F= -.82709528E+03 E0= -.82707223E+03  d E =-.805526E-02  mag=    -0.0000
       N       E                     dE             d eps       ncg     rms          rms(c)
DAV:   1    -0.827095242899E+03   -0.39765E-04   -0.15595E-04 14016   0.289E-02    0.579E-02
DAV:   2    -0.827095315267E+03   -0.72368E-04   -0.16323E-04 13680   0.343E-02    0.115E-01
DAV:   3    -0.827095239275E+03    0.75992E-04   -0.13077E-04 12384   0.294E-02    0.434E-02
DAV:   4    -0.827095244322E+03   -0.50471E-05   -0.22357E-05 12608   0.104E-02    0.235E-02
DAV:   5    -0.827095251089E+03   -0.67672E-05   -0.76057E-06 13504   0.679E-03    0.899E-03
DAV:   6    -0.827095257570E+03   -0.64811E-05   -0.34330E-06 13728   0.412E-03
  35 F= -.82709526E+03 E0= -.82707220E+03  d E =-.803320E-02  mag=    -0.0000
       N       E                     dE             d eps       ncg     rms          rms(c)
DAV:   1    -0.827083962528E+03    0.11289E-01   -0.62673E+00 19744   0.480E+00    0.116E+00
DAV:   2    -0.827102004629E+03   -0.18042E-01   -0.19990E-01 20336   0.683E-01    0.744E-01
DAV:   3    -0.827103218334E+03   -0.12137E-02   -0.76469E-03 25504   0.219E-01    0.625E-01
DAV:   4    -0.827103433931E+03   -0.21560E-03   -0.82484E-03 26432   0.224E-01    0.741E-01
DAV:   5    -0.827103331294E+03    0.10264E-03   -0.70024E-03 25328   0.180E-01    0.564E-01
DAV:   6    -0.827101488748E+03    0.18425E-02   -0.28310E-03 23152   0.123E-01    0.122E-01
DAV:   7    -0.827101572264E+03   -0.83516E-04   -0.51906E-04 18176   0.448E-02
  36 F= -.82710157E+03 E0= -.82707851E+03  d E =-.631469E-02  mag=    -0.0000
       N       E                     dE             d eps       ncg     rms          rms(c)
DAV:   1    -0.827100222431E+03    0.12663E-02   -0.60226E-01 20128   0.149E+00    0.385E-01
DAV:   2    -0.827101945873E+03   -0.17234E-02   -0.19290E-02 20496   0.214E-01    0.206E-01
DAV:   3    -0.827102207535E+03   -0.26166E-03   -0.10229E-03 21472   0.711E-02    0.292E-01
DAV:   4    -0.827101918621E+03    0.28891E-03   -0.59490E-04 14240   0.564E-02    0.114E-01
DAV:   5    -0.827102028487E+03   -0.10987E-03   -0.33474E-04 13760   0.462E-02    0.155E-01
DAV:   6    -0.827101894347E+03    0.13414E-03   -0.18754E-04 13120   0.379E-02    0.348E-02
DAV:   7    -0.827101908429E+03   -0.14083E-04   -0.37145E-05 12832   0.147E-02
  37 F= -.82710191E+03 E0= -.82707888E+03  d E =-.665086E-02  mag=    -0.0000
       N       E                     dE             d eps       ncg     rms          rms(c)
DAV:   1    -0.827101084822E+03    0.80952E-03   -0.11220E+00 19776   0.206E+00    0.461E-01
DAV:   2    -0.827104979051E+03   -0.38942E-02   -0.43692E-02 20720   0.315E-01    0.287E-01
DAV:   3    -0.827105126700E+03   -0.14765E-03   -0.13053E-03 24192   0.846E-02    0.231E-01
DAV:   4    -0.827105131465E+03   -0.47650E-05   -0.79301E-04 17856   0.664E-02    0.237E-01
DAV:   5    -0.827105246027E+03   -0.11456E-03   -0.77903E-04 14272   0.640E-02    0.223E-01
DAV:   6    -0.827105008372E+03    0.23766E-03   -0.42878E-04 13184   0.521E-02    0.503E-02
DAV:   7    -0.827105017536E+03   -0.91636E-05   -0.68946E-05 12960   0.211E-02
  38 F= -.82710502E+03 E0= -.82708204E+03  d E =-.310911E-02  mag=    -0.0000
       N       E                     dE             d eps       ncg     rms          rms(c)
DAV:   1    -0.827101512227E+03    0.34961E-02   -0.12680E+00 19744   0.219E+00    0.492E-01
DAV:   2    -0.827105909521E+03   -0.43973E-02   -0.49508E-02 20640   0.334E-01    0.305E-01
DAV:   3    -0.827106133650E+03   -0.22413E-03   -0.15692E-03 24304   0.904E-02    0.266E-01
DAV:   4    -0.827106135701E+03   -0.20516E-05   -0.11423E-03 18720   0.778E-02    0.274E-01
DAV:   5    -0.827106240738E+03   -0.10504E-03   -0.97292E-04 14912   0.714E-02    0.239E-01
DAV:   6    -0.827105948024E+03    0.29271E-03   -0.43000E-04 13760   0.554E-02    0.467E-02
DAV:   7    -0.827105964478E+03   -0.16454E-04   -0.80926E-05 12768   0.210E-02
  39 F= -.82710596E+03 E0= -.82708304E+03  d E =-.405605E-02  mag=    -0.0000
       N       E                     dE             d eps       ncg     rms          rms(c)
DAV:   1    -0.827106702226E+03   -0.75420E-03   -0.24086E-01 19936   0.942E-01    0.211E-01
DAV:   2    -0.827107522463E+03   -0.82024E-03   -0.92702E-03 20768   0.147E-01    0.117E-01
DAV:   3    -0.827107542632E+03   -0.20169E-04   -0.24148E-04 17920   0.375E-02    0.962E-02
DAV:   4    -0.827107556755E+03   -0.14123E-04   -0.16536E-04 13440   0.316E-02    0.998E-02
DAV:   5    -0.827107553671E+03    0.30845E-05   -0.13809E-04 12400   0.281E-02    0.833E-02
DAV:   6    -0.827107530994E+03    0.22676E-04   -0.64516E-05 12496   0.185E-02
  40 F= -.82710753E+03 E0= -.82708467E+03  d E =-.156652E-02  mag=    -0.0000
       N       E                     dE             d eps       ncg     rms          rms(c)
DAV:   1    -0.827102612435E+03    0.49412E-02   -0.21661E+00 19744   0.282E+00    0.622E-01
DAV:   2    -0.827109927445E+03   -0.73150E-02   -0.82710E-02 20512   0.440E-01    0.372E-01
DAV:   3    -0.827110065685E+03   -0.13824E-03   -0.24147E-03 24992   0.112E-01    0.284E-01
DAV:   4    -0.827110052030E+03    0.13654E-04   -0.10130E-03 20576   0.801E-02    0.277E-01
DAV:   5    -0.827109986583E+03    0.65447E-04   -0.58618E-04 17584   0.617E-02    0.109E-01
DAV:   6    -0.827109958417E+03    0.28165E-04   -0.21582E-04 13360   0.387E-02
  41 F= -.82710996E+03 E0= -.82708712E+03  d E =-.399394E-02  mag=    -0.0000
       N       E                     dE             d eps       ncg     rms          rms(c)
DAV:   1    -0.827109218497E+03    0.76809E-03   -0.22725E-01 19808   0.916E-01    0.212E-01
DAV:   2    -0.827110083484E+03   -0.86499E-03   -0.89735E-03 20896   0.151E-01    0.213E-01
DAV:   3    -0.827110141824E+03   -0.58340E-04   -0.96852E-04 18656   0.666E-02    0.208E-01
DAV:   4    -0.827109973860E+03    0.16796E-03   -0.43034E-04 12192   0.495E-02    0.876E-02
DAV:   5    -0.827109999847E+03   -0.25987E-04   -0.10449E-04 12256   0.282E-02    0.754E-02
DAV:   6    -0.827109983471E+03    0.16376E-04   -0.51052E-05 12352   0.189E-02
  42 F= -.82710998E+03 E0= -.82708730E+03  d E =-.401899E-02  mag=    -0.0000
       N       E                     dE             d eps       ncg     rms          rms(c)
DAV:   1    -0.827109694659E+03    0.30519E-03   -0.53223E-01 19776   0.144E+00    0.289E-01
DAV:   2    -0.827111739619E+03   -0.20450E-02   -0.23170E-02 20976   0.236E-01    0.173E-01
DAV:   3    -0.827111746066E+03   -0.64465E-05   -0.56422E-04 21952   0.562E-02    0.124E-01
DAV:   4    -0.827111772901E+03   -0.26835E-04   -0.20736E-04 12448   0.342E-02    0.135E-01
DAV:   5    -0.827111763588E+03    0.93129E-05   -0.19928E-04 11936   0.347E-02    0.957E-02
DAV:   6    -0.827111737311E+03    0.26277E-04   -0.10458E-04 12096   0.281E-02
  43 F= -.82711174E+03 E0= -.82708906E+03  d E =-.175384E-02  mag=    -0.0000
       N       E                     dE             d eps       ncg     rms          rms(c)
DAV:   1    -0.827105777548E+03    0.59860E-02   -0.18090E+00 19776   0.265E+00    0.527E-01
DAV:   2    -0.827112777098E+03   -0.69996E-02   -0.78867E-02 21120   0.435E-01    0.342E-01
DAV:   3    -0.827112875558E+03   -0.98459E-04   -0.22995E-03 24608   0.115E-01    0.279E-01
DAV:   4    -0.827112879868E+03   -0.43100E-05   -0.12884E-03 17472   0.808E-02    0.287E-01
DAV:   5    -0.827112762502E+03    0.11737E-03   -0.57210E-04 14592   0.585E-02    0.154E-01
DAV:   6    -0.827112718486E+03    0.44016E-04   -0.27059E-04 14240   0.453E-02
  44 F= -.82711272E+03 E0= -.82709013E+03  d E =-.273502E-02  mag=    -0.0000
       N       E                     dE             d eps       ncg     rms          rms(c)
DAV:   1    -0.827112750875E+03    0.11627E-04   -0.31736E-01 19840   0.109E+00    0.281E-01
DAV:   2    -0.827113699598E+03   -0.94872E-03   -0.10423E-02 21792   0.155E-01    0.177E-01
DAV:   3    -0.827113788919E+03   -0.89321E-04   -0.49914E-04 18816   0.540E-02    0.167E-01
DAV:   4    -0.827113804218E+03   -0.15299E-04   -0.63297E-04 14224   0.579E-02    0.197E-01
DAV:   5    -0.827113714552E+03    0.89666E-04   -0.30231E-04 12240   0.417E-02    0.907E-02
DAV:   6    -0.827113672459E+03    0.42093E-04   -0.84831E-05 12224   0.278E-02
  45 F= -.82711367E+03 E0= -.82709117E+03  d E =-.953973E-03  mag=    -0.0000
       N       E                     dE             d eps       ncg     rms          rms(c)
DAV:   1    -0.827111625388E+03    0.20892E-02   -0.87309E-01 19744   0.181E+00    0.466E-01
DAV:   2    -0.827114233652E+03   -0.26083E-02   -0.28500E-02 21760   0.257E-01    0.295E-01
DAV:   3    -0.827114568217E+03   -0.33456E-03   -0.15978E-03 24672   0.896E-02    0.301E-01
DAV:   4    -0.827114542873E+03    0.25344E-04   -0.20878E-03 20320   0.981E-02    0.329E-01
DAV:   5    -0.827114297965E+03    0.24491E-03   -0.77973E-04 13696   0.666E-02    0.167E-01
DAV:   6    -0.827114183970E+03    0.11400E-03   -0.22317E-04 12736   0.424E-02    0.435E-02
DAV:   7    -0.827114188752E+03   -0.47824E-05   -0.57386E-05 12320   0.187E-02
  46 F= -.82711419E+03 E0= -.82709181E+03  d E =-.147027E-02  mag=    -0.0000
       N       E                     dE             d eps       ncg     rms          rms(c)
DAV:   1    -0.827113612849E+03    0.57112E-03   -0.26896E-01 19872   0.104E+00    0.261E-01
DAV:   2    -0.827114708243E+03   -0.10954E-02   -0.13421E-02 21248   0.190E-01    0.156E-01
DAV:   3    -0.827114752378E+03   -0.44134E-04   -0.41264E-04 20352   0.469E-02    0.116E-01
DAV:   4    -0.827114754389E+03   -0.20114E-05   -0.13462E-04 14144   0.312E-02    0.928E-02
DAV:   5    -0.827114775154E+03   -0.20765E-04   -0.11049E-04 12256   0.283E-02    0.820E-02
DAV:   6    -0.827114754650E+03    0.20505E-04   -0.86139E-05 13216   0.217E-02
  47 F= -.82711475E+03 E0= -.82709229E+03  d E =-.565897E-03  mag=    -0.0000
       N       E                     dE             d eps       ncg     rms          rms(c)
DAV:   1    -0.827114751992E+03    0.23163E-04   -0.13194E-04 13024   0.255E-02    0.207E-02
DAV:   2    -0.827114764754E+03   -0.12762E-04   -0.43991E-05 12576   0.193E-02    0.535E-02
DAV:   3    -0.827114751952E+03    0.12802E-04   -0.21709E-05 11840   0.127E-02    0.110E-02
DAV:   4    -0.827114750650E+03    0.13023E-05   -0.35055E-06 11776   0.395E-03    0.625E-03
DAV:   5    -0.827114750164E+03    0.48583E-06   -0.79078E-07 12544   0.236E-03    0.480E-03
DAV:   6    -0.827114749820E+03    0.34377E-06   -0.35079E-07 12320   0.142E-03
  48 F= -.82711475E+03 E0= -.82709232E+03  d E =-.561068E-03  mag=    -0.0000
       N       E                     dE             d eps       ncg     rms          rms(c)
DAV:   1    -0.827114868679E+03   -0.11852E-03   -0.12012E-01 19840   0.675E-01    0.132E-01
DAV:   2    -0.827115228304E+03   -0.35962E-03   -0.39262E-03 20480   0.964E-02    0.978E-02
DAV:   3    -0.827115249602E+03   -0.21297E-04   -0.17828E-04 13728   0.337E-02    0.846E-02
DAV:   4    -0.827115239210E+03    0.10391E-04   -0.15596E-04 12000   0.317E-02    0.857E-02
DAV:   5    -0.827115233855E+03    0.53554E-05   -0.67313E-05 11712   0.195E-02    0.568E-02
DAV:   6    -0.827115214799E+03    0.19056E-04   -0.28432E-05 11808   0.153E-02
  49 F= -.82711521E+03 E0= -.82709275E+03  d E =-.464979E-03  mag=    -0.0000
       N       E                     dE             d eps       ncg     rms          rms(c)
DAV:   1    -0.827112769590E+03    0.24643E-02   -0.96496E-01 19712   0.191E+00    0.375E-01
DAV:   2    -0.827115700844E+03   -0.29313E-02   -0.31660E-02 20704   0.274E-01    0.287E-01
DAV:   3    -0.827115869130E+03   -0.16829E-03   -0.17989E-03 24576   0.986E-02    0.249E-01
DAV:   4    -0.827115767419E+03    0.10171E-03   -0.13210E-03 17024   0.841E-02    0.251E-01
DAV:   5    -0.827115715850E+03    0.51568E-04   -0.50234E-04 13984   0.512E-02    0.164E-01
DAV:   6    -0.827115594946E+03    0.12090E-03   -0.20998E-04 13184   0.389E-02    0.365E-02
DAV:   7    -0.827115606203E+03   -0.11257E-04   -0.58247E-05 12704   0.199E-02
  50 F= -.82711561E+03 E0= -.82709294E+03  d E =-.856383E-03  mag=    -0.0000
       N       E                     dE             d eps       ncg     rms          rms(c)
DAV:   1    -0.827115680123E+03   -0.85177E-04   -0.57510E-02 19872   0.487E-01    0.939E-02
DAV:   2    -0.827115882458E+03   -0.20234E-03   -0.22620E-03 21120   0.754E-02    0.619E-02
DAV:   3    -0.827115883646E+03   -0.11884E-05   -0.61602E-05 12768   0.204E-02    0.452E-02
DAV:   4    -0.827115881326E+03    0.23203E-05   -0.29495E-05 10976   0.153E-02    0.389E-02
DAV:   5    -0.827115879930E+03    0.13955E-05   -0.16058E-05 11744   0.105E-02    0.255E-02
DAV:   6    -0.827115877531E+03    0.23989E-05   -0.11262E-05 11040   0.845E-03
  51 F= -.82711588E+03 E0= -.82709319E+03  d E =-.271328E-03  mag=    -0.0000
       N       E                     dE             d eps       ncg     rms          rms(c)
DAV:   1    -0.827114688443E+03    0.11915E-02   -0.51868E-01 19808   0.146E+00    0.271E-01
DAV:   2    -0.827116523005E+03   -0.18346E-02   -0.20261E-02 20800   0.226E-01    0.200E-01
DAV:   3    -0.827116607158E+03   -0.84153E-04   -0.93621E-04 21696   0.713E-02    0.188E-01
DAV:   4    -0.827116513531E+03    0.93628E-04   -0.57636E-04 13184   0.545E-02    0.153E-01
DAV:   5    -0.827116513702E+03   -0.17113E-06   -0.19412E-04 12032   0.346E-02    0.104E-01
DAV:   6    -0.827116471576E+03    0.42126E-04   -0.11973E-04 12544   0.287E-02
  52 F= -.82711647E+03 E0= -.82709377E+03  d E =-.865373E-03  mag=    -0.0000
       N       E                     dE             d eps       ncg     rms          rms(c)
DAV:   1    -0.827109409640E+03    0.71041E-02   -0.20730E+00 19744   0.292E+00    0.542E-01
DAV:   2    -0.827116698225E+03   -0.72886E-02   -0.80771E-02 20800   0.450E-01    0.382E-01
DAV:   3    -0.827116976102E+03   -0.27788E-03   -0.33990E-03 25856   0.136E-01    0.343E-01
DAV:   4    -0.827116783486E+03    0.19262E-03   -0.22799E-03 20784   0.106E-01    0.324E-01
DAV:   5    -0.827116721016E+03    0.62469E-04   -0.78798E-04 15568   0.651E-02    0.213E-01
DAV:   6    -0.827116559008E+03    0.16201E-03   -0.45546E-04 15360   0.530E-02    0.627E-02
DAV:   7    -0.827116561108E+03   -0.21002E-05   -0.96189E-05 13472   0.263E-02
  53 F= -.82711656E+03 E0= -.82709371E+03  d E =-.954905E-03  mag=    -0.0000
       N       E                     dE             d eps       ncg     rms          rms(c)
DAV:   1    -0.827116070763E+03    0.48825E-03   -0.17798E-01 19904   0.852E-01    0.157E-01
DAV:   2    -0.827116713857E+03   -0.64309E-03   -0.69049E-03 21072   0.133E-01    0.137E-01
DAV:   3    -0.827116749673E+03   -0.35817E-04   -0.43975E-04 15776   0.497E-02    0.141E-01
DAV:   4    -0.827116673120E+03    0.76553E-04   -0.23152E-04 11776   0.367E-02    0.756E-02
DAV:   5    -0.827116685358E+03   -0.12237E-04   -0.66773E-05 12160   0.201E-02    0.609E-02
DAV:   6    -0.827116680518E+03    0.48393E-05   -0.56000E-05 13344   0.184E-02
  54 F= -.82711668E+03 E0= -.82709382E+03  d E =-.107432E-02  mag=    -0.0000
       N       E                     dE             d eps       ncg     rms          rms(c)
DAV:   1    -0.827116374979E+03    0.31038E-03   -0.15326E-01 19904   0.775E-01    0.193E-01
DAV:   2    -0.827117104799E+03   -0.72982E-03   -0.82545E-03 21312   0.142E-01    0.125E-01
DAV:   3    -0.827117126930E+03   -0.22131E-04   -0.23935E-04 16448   0.358E-02    0.105E-01
DAV:   4    -0.827117145254E+03   -0.18325E-04   -0.20785E-04 12736   0.338E-02    0.117E-01
DAV:   5    -0.827117106417E+03    0.38837E-04   -0.10915E-04 11680   0.271E-02    0.369E-02
DAV:   6    -0.827117108245E+03   -0.18284E-05   -0.25623E-05 12576   0.147E-02
  55 F= -.82711711E+03 E0= -.82709428E+03  d E =-.427727E-03  mag=    -0.0000
       N       E                     dE             d eps       ncg     rms          rms(c)
DAV:   1    -0.827117028139E+03    0.78278E-04   -0.21890E-02 19904   0.293E-01    0.752E-02
DAV:   2    -0.827117134223E+03   -0.10608E-03   -0.12087E-03 22144   0.548E-02    0.468E-02
DAV:   3    -0.827117135113E+03   -0.88953E-06   -0.30030E-05 12640   0.125E-02    0.371E-02
DAV:   4    -0.827117136442E+03   -0.13289E-05   -0.19085E-05 11360   0.108E-02    0.336E-02
DAV:   5    -0.827117139244E+03   -0.28028E-05   -0.18303E-05 12464   0.105E-02    0.322E-02
DAV:   6    -0.827117133828E+03    0.54168E-05   -0.87859E-06 12064   0.755E-03
  56 F= -.82711713E+03 E0= -.82709434E+03  d E =-.453309E-03  mag=    -0.0000
       N       E                     dE             d eps       ncg     rms          rms(c)
DAV:   1    -0.827117195404E+03   -0.56159E-04   -0.62817E-02 19968   0.499E-01    0.147E-01
DAV:   2    -0.827117395735E+03   -0.20033E-03   -0.21880E-03 22768   0.744E-02    0.952E-02
DAV:   3    -0.827117446930E+03   -0.51194E-04   -0.17778E-04 13248   0.334E-02    0.111E-01
DAV:   4    -0.827117412177E+03    0.34752E-04   -0.21737E-04 11904   0.354E-02    0.895E-02
DAV:   5    -0.827117398472E+03    0.13705E-04   -0.77049E-05 11488   0.218E-02    0.565E-02
DAV:   6    -0.827117383500E+03    0.14972E-04   -0.23841E-05 11456   0.145E-02
  57 F= -.82711738E+03 E0= -.82709458E+03  d E =-.249672E-03  mag=    -0.0000
