    #         X           Y           Z       CHARGE      MIN DIST   ATOMIC VOL
 --------------------------------------------------------------------------------
    1    0.002583    5.805970    7.231704    0.623853     0.156981    29.978412
    2    9.529956    0.596322   26.700378    0.665484     0.164759    30.347859
    3    6.357612    5.805970    7.231704    0.623853     0.156981    29.978412
    4    3.174927    0.596322   26.700378    0.665484     0.164759    30.347859
    5    3.180093    5.805970    7.231704    0.623853     0.156981    29.978412
    6    6.352446    0.596322   26.700378    0.665484     0.164759    30.347859
    7    8.712922    1.478379    6.604128    0.730051     0.136317   326.474570
    8    0.819617    4.923913   27.327954    0.725058     0.131942   326.609349
    9    5.535412    1.478379    6.604128    0.730051     0.136315   326.474570
   10    3.997127    4.923913   27.327954    0.725058     0.131940   326.609349
   11    2.357902    1.478379    6.604128    0.730051     0.136312   326.474570
   12    7.174637    4.923913   27.327954    0.725058     0.131937   326.609349
   13    1.586119    4.803518    8.966667   15.169379     0.931951    12.357514
   14    4.763629    4.803518    8.966667   15.169379     0.931951    12.357514
   15    7.941139    4.803518    8.966667   15.169379     0.931951    12.357514
   16    9.528287    1.587928    8.944021   15.260244     0.963678    11.956477
   17    3.173268    1.587928    8.944021   15.260244     0.963678    11.956477
   18    6.350778    1.587928    8.944021   15.260244     0.963678    11.956477
   19    1.584480    1.616982   12.166598   15.314540     0.905632    12.773131
   20    4.761999    1.616982   12.166598   15.314540     0.905632    12.773131
   21    7.939509    1.616982   12.166598   15.314540     0.905632    12.773131
   22    9.530289    4.810343   12.164220   15.058655     0.967013    11.261149
   23    3.175270    4.810343   12.164220   15.058655     0.967009    11.261149
   24    6.352779    4.810343   12.164220   15.058655     0.967011    11.261149
   25    1.588760    4.801719   15.365510   15.141889     0.940823    11.782558
   26    4.766269    4.801719   15.365510   15.141889     0.940826    11.782558
   27    7.943779    4.801719   15.365510   15.141889     0.940828    11.782558
   28    0.000000    1.600573   15.365510   15.087104     0.946403    11.442098
   29    3.177510    1.600573   15.365510   15.087104     0.946403    11.442098
   30    6.355029    1.600573   15.365510   15.087104     0.946403    11.442098
   31    1.588760    1.600573   18.566629   15.148680     0.949783    11.782558
   32    4.766269    1.600573   18.566629   15.148680     0.949786    11.782558
   33    7.943779    1.600573   18.566629   15.148680     0.949783    11.782558
   34    0.000000    4.801719   18.566629   15.118760     0.962934    11.536955
   35    3.177510    4.801719   18.566629   15.118760     0.962934    11.536955
   36    6.355029    4.801719   18.566629   15.118760     0.962934    11.536955
   37    1.593030    4.785310   21.765541   15.333230     0.917278    12.749699
   38    4.770540    4.785310   21.765541   15.333230     0.917278    12.749699
   39    7.948059    4.785310   21.765541   15.333230     0.917278    12.749699
   40    0.002250    1.591949   21.767918   15.092918     0.966542    11.302893
   41    3.179760    1.591949   21.767918   15.092918     0.966542    11.302893
   42    6.357269    1.591949   21.767918   15.092918     0.966542    11.302893
   43    1.591400    1.598774   24.965471   15.172121     0.932077    12.491859
   44    4.768910    1.598774   24.965471   15.172121     0.932077    12.491859
   45    7.946420    1.598774   24.965471   15.172121     0.932077    12.491859
   46    0.004252    4.814364   24.988117   15.223972     0.971108    11.807119
   47    3.181761    4.814364   24.988117   15.223972     0.971108    11.807119
   48    6.359271    4.814364   24.988117   15.223972     0.971108    11.807119
   49    9.530775    4.894661    7.655466    6.808220     0.455448    17.045942
   50    3.175746    4.894661    7.655466    6.808220     0.455448    17.045942
   51    6.353266    4.894661    7.655466    6.808220     0.455448    17.045942
   52    1.589217    0.363817    9.040663    6.782497     0.779643     9.644244
   53    4.766737    0.363817    9.040663    6.782497     0.779642     9.644244
   54    7.944246    0.363817    9.040663    6.782497     0.779643     9.644244
   55    9.529603    4.741057   10.193512    6.959642     0.743148    10.426097
   56    3.174583    4.741057   10.193512    6.959642     0.743144    10.426097
   57    6.352093    4.741057   10.193512    6.959642     0.743146    10.426097
   58    1.578608    2.825050    8.849022    6.884098     0.792799    11.268092
   59    4.756117    2.825050    8.849022    6.884098     0.792799    11.268092
   60    7.933637    2.825050    8.849022    6.884098     0.792798    11.268092
   61    9.527677    1.669327   10.946604    6.887821     0.805400    10.409087
   62    3.172658    1.669327   10.946604    6.887821     0.805406    10.409087
   63    6.350168    1.669327   10.946604    6.887821     0.805403    10.409087
   64    1.585519    3.588350   12.187093    6.971845     0.787853    10.818976
   65    4.763038    3.588350   12.187093    6.971845     0.787855    10.818976
   66    7.940548    3.588350   12.187093    6.971845     0.787854    10.818976
   67    9.530175    1.595150   13.391178    6.955694     0.868091    10.522950
   68    3.175146    1.595150   13.391178    6.955694     0.868093    10.522950
   69    6.352665    1.595150   13.391178    6.955694     0.868089    10.522950
   70    1.586253    6.040614   12.148594    6.849619     0.826051    10.022630
   71    4.763762    6.040614   12.148594    6.849619     0.826052    10.022630
   72    7.941272    6.040614   12.148594    6.849619     0.826053    10.022630
   73    0.000000    4.801719   14.138155    6.974580     0.890286    10.465758
   74    3.177510    4.801719   14.138155    6.985092     0.890288    10.613814
   75    6.355029    4.801719   14.138155    6.979836     0.890284    10.539786
   76    1.588760    0.373215   15.365510    6.958207     0.862458    10.625791
   77    4.766269    0.373215   15.365510    6.954040     0.862458    10.564607
   78    7.943779    0.373215   15.365510    6.960849     0.862458    10.663803
   79    0.000000    4.801719   16.592864    6.928363     0.883683    10.237077
   80    3.177510    4.801719   16.592864    6.937036     0.883684    10.364999
   81    6.355029    4.801719   16.592864    6.932700     0.883683    10.301038
   82    1.588760    2.827931   15.365510    6.890105     0.862458    10.259555
   83    4.766269    2.827931   15.365510    6.886655     0.862458    10.209132
   84    7.943779    2.827931   15.365510    6.893555     0.862458    10.309977
   85    0.000000    1.600573   17.339275    6.933014     0.859930    10.301385
   86    3.177510    1.600573   17.339275    6.940835     0.859930    10.411603
   87    6.355029    1.600573   17.339275    6.936924     0.859930    10.356494
   88    1.588760    3.574361   18.566629    6.953659     0.862339    10.652260
   89    4.766269    3.574361   18.566629    6.949470     0.862339    10.590295
   90    7.943779    3.574361   18.566629    6.954538     0.862339    10.663716
   91    0.000000    1.600573   19.793983    6.939733     0.793337    10.360573
   92    3.177510    1.600573   19.793983    6.950677     0.793337    10.513316
   93    6.355029    1.600573   19.793983    6.945205     0.793337    10.436945
   94    1.588760    6.029077   18.566629    6.889315     0.862339    10.199325
   95    4.766269    6.029077   18.566629    6.885327     0.862339    10.140919
   96    7.943779    6.029077   18.566629    6.891941     0.862339    10.236904
   97    0.002364    4.807142   20.540960    6.919579     0.825302    10.414381
   98    3.179874    4.807142   20.540960    6.919579     0.825301    10.414381
   99    6.357393    4.807142   20.540960    6.919579     0.825302    10.414381
  100    1.591267    0.361678   21.783544    6.846994     0.806009    10.095703
  101    4.768777    0.361678   21.783544    6.846994     0.806010    10.095703
  102    7.946286    0.361678   21.783544    6.846994     0.806011    10.095703
  103    0.004862    4.732965   22.985592    6.890049     0.813980    10.538484
  104    3.182371    4.732965   22.985592    6.890049     0.813977    10.538484
  105    6.359881    4.732965   22.985592    6.890049     0.813974    10.538484
  106    1.591991    2.813942   21.745046    6.946862     0.787756    10.624489
  107    4.769501    2.813942   21.745046    6.946862     0.787757    10.624489
  108    7.947020    2.813942   21.745046    6.946862     0.787755    10.624489
  109    0.002936    1.661235   23.738626    6.974900     0.845457    10.573893
  110    3.180446    1.661235   23.738626    6.974900     0.845458    10.573893
  111    6.357956    1.661235   23.738626    6.974900     0.845458    10.573893
  112    1.598902    3.577242   25.083174    6.869505     0.807343    11.012595
  113    4.776422    3.577242   25.083174    6.869505     0.807348    11.012595
  114    7.953931    3.577242   25.083174    6.869505     0.807345    11.012595
  115    0.001764    1.507631   26.276672    6.771358     0.451828    16.526877
  116    3.179273    1.507631   26.276672    6.771358     0.451828    16.526877
  117    6.356793    1.507631   26.276672    6.771358     0.451828    16.526877
  118    1.588293    6.038475   24.891475    6.795250     0.779510     9.614563
  119    4.765802    6.038475   24.891475    6.795250     0.779509     9.614563
  120    7.943322    6.038475   24.891475    6.795250     0.779511     9.614563
  121    0.048683    1.229682    6.983108    6.752692     0.462933    15.897767
  122    9.483856    5.172610   26.948917    6.783553     0.461675    16.286914
  123    3.226192    1.229682    6.983108    6.752692     0.462931    15.897767
  124    6.306347    5.172610   26.948917    6.783553     0.461672    16.286914
  125    6.403702    1.229682    6.983108    6.752692     0.462928    15.897767
  126    3.128837    5.172610   26.948917    6.783553     0.461670    16.286914
 --------------------------------------------------------------------------------
    VACUUM CHARGE:               0.0000
    VACUUM VOLUME:               0.0000
    NUMBER OF ELECTRONS:      1092.0000
