  126  126    1    2
  0.2742232E+02  0.9532539E-09  0.6402292E-09  0.5661490E-08  0.5000000E-15
  1.000000000000000E-004
  CAR 
 IrO2-110	                               
   1092     26    720
 
  0.0000000E+00  0.0000000E+00  0.0000000E+00  0.2083333E-01
      1        -94.278264      -94.278263   1.000000   1.000000
      2        -94.276487      -94.276486   1.000000   1.000000
      3        -94.276487      -94.276486   1.000000   1.000000
      4        -94.274895      -94.274895   1.000000   1.000000
      5        -94.273319      -94.273318   1.000000   1.000000
      6        -94.273319      -94.273318   1.000000   1.000000
      7        -94.235286      -94.235286   1.000000   1.000000
      8        -94.233587      -94.233586   1.000000   1.000000
      9        -94.233574      -94.233574   1.000000   1.000000
     10        -94.233574      -94.233574   1.000000   1.000000
     11        -94.231807      -94.231806   1.000000   1.000000
     12        -94.231807      -94.231806   1.000000   1.000000
     13        -94.230265      -94.230265   1.000000   1.000000
     14        -94.228686      -94.228686   1.000000   1.000000
     15        -94.228686      -94.228686   1.000000   1.000000
     16        -94.225676      -94.225676   1.000000   1.000000
     17        -94.224024      -94.224024   1.000000   1.000000
     18        -94.224024      -94.224024   1.000000   1.000000
     19        -94.220362      -94.220362   1.000000   1.000000
     20        -94.218678      -94.218678   1.000000   1.000000
     21        -94.218678      -94.218678   1.000000   1.000000
     22        -94.210760      -94.210760   1.000000   1.000000
     23        -94.209133      -94.209133   1.000000   1.000000
     24        -94.209133      -94.209133   1.000000   1.000000
     25        -94.108199      -94.108199   1.000000   1.000000
     26        -94.106528      -94.106527   1.000000   1.000000
     27        -94.106528      -94.106527   1.000000   1.000000
     28        -94.033037      -94.033036   1.000000   1.000000
     29        -94.031365      -94.031365   1.000000   1.000000
     30        -94.031365      -94.031365   1.000000   1.000000
     31        -93.966175      -93.966175   1.000000   1.000000
     32        -93.964560      -93.964560   1.000000   1.000000
     33        -93.964560      -93.964560   1.000000   1.000000
     34        -93.892374      -93.892374   1.000000   1.000000
     35        -93.890759      -93.890759   1.000000   1.000000
     36        -93.890759      -93.890759   1.000000   1.000000
     37        -51.235520      -51.235519   1.000000   1.000000
     38        -51.229949      -51.229948   1.000000   1.000000
     39        -51.229949      -51.229948   1.000000   1.000000
     40        -51.216143      -51.216143   1.000000   1.000000
     41        -51.211514      -51.211513   1.000000   1.000000
     42        -51.211514      -51.211513   1.000000   1.000000
     43        -51.197073      -51.197072   1.000000   1.000000
     44        -51.197073      -51.197072   1.000000   1.000000
     45        -51.190847      -51.190846   1.000000   1.000000
     46        -51.185274      -51.185273   1.000000   1.000000
     47        -51.185274      -51.185273   1.000000   1.000000
     48        -51.180378      -51.180378   1.000000   1.000000
     49        -51.176385      -51.176384   1.000000   1.000000
     50        -51.176385      -51.176384   1.000000   1.000000
     51        -51.173458      -51.173458   1.000000   1.000000
     52        -51.173458      -51.173458   1.000000   1.000000
     53        -51.171537      -51.171536   1.000000   1.000000
     54        -51.171004      -51.171004   1.000000   1.000000
     55        -51.167109      -51.167108   1.000000   1.000000
     56        -51.167109      -51.167108   1.000000   1.000000
     57        -51.165440      -51.165440   1.000000   1.000000
     58        -51.165323      -51.165323   1.000000   1.000000
     59        -51.165323      -51.165323   1.000000   1.000000
     60        -51.164346      -51.164346   1.000000   1.000000
     61        -51.164346      -51.164346   1.000000   1.000000
     62        -51.156110      -51.156109   1.000000   1.000000
     63        -51.150438      -51.150438   1.000000   1.000000
     64        -51.150438      -51.150438   1.000000   1.000000
     65        -51.147410      -51.147409   1.000000   1.000000
     66        -51.147410      -51.147409   1.000000   1.000000
     67        -51.142032      -51.142032   1.000000   1.000000
     68        -51.142032      -51.142032   1.000000   1.000000
     69        -51.131604      -51.131604   1.000000   1.000000
     70        -51.131604      -51.131604   1.000000   1.000000
     71        -51.127508      -51.127508   1.000000   1.000000
     72        -51.127508      -51.127508   1.000000   1.000000
     73        -51.125533      -51.125533   1.000000   1.000000
     74        -51.125533      -51.125533   1.000000   1.000000
     75        -51.119208      -51.119208   1.000000   1.000000
     76        -51.111386      -51.111386   1.000000   1.000000
     77        -51.111386      -51.111386   1.000000   1.000000
     78        -51.100072      -51.100072   1.000000   1.000000
     79        -51.074586      -51.074585   1.000000   1.000000
     80        -51.066633      -51.066632   1.000000   1.000000
     81        -51.055512      -51.055512   1.000000   1.000000
     82        -51.052960      -51.052960   1.000000   1.000000
     83        -51.050214      -51.050214   1.000000   1.000000
     84        -51.036514      -51.036514   1.000000   1.000000
     85        -51.034371      -51.034370   1.000000   1.000000
     86        -51.034371      -51.034370   1.000000   1.000000
     87        -51.005276      -51.005275   1.000000   1.000000
     88        -50.999204      -50.999203   1.000000   1.000000
     89        -50.999204      -50.999203   1.000000   1.000000
     90        -50.965067      -50.965067   1.000000   1.000000
     91        -50.962272      -50.962271   1.000000   1.000000
     92        -50.959309      -50.959308   1.000000   1.000000
     93        -50.959309      -50.959308   1.000000   1.000000
     94        -50.955256      -50.955255   1.000000   1.000000
     95        -50.955256      -50.955255   1.000000   1.000000
     96        -50.935691      -50.935690   1.000000   1.000000
     97        -50.930918      -50.930917   1.000000   1.000000
     98        -50.927754      -50.927753   1.000000   1.000000
     99        -50.925509      -50.925508   1.000000   1.000000
    100        -50.925509      -50.925508   1.000000   1.000000
    101        -50.924091      -50.924090   1.000000   1.000000
    102        -50.924091      -50.924090   1.000000   1.000000
    103        -50.921744      -50.921743   1.000000   1.000000
    104        -50.921744      -50.921743   1.000000   1.000000
    105        -50.921145      -50.921145   1.000000   1.000000
    106        -50.920407      -50.920407   1.000000   1.000000
    107        -50.918901      -50.918901   1.000000   1.000000
    108        -50.911451      -50.911451   1.000000   1.000000
    109        -50.911451      -50.911451   1.000000   1.000000
    110        -50.910615      -50.910614   1.000000   1.000000
    111        -50.910615      -50.910614   1.000000   1.000000
    112        -50.908086      -50.908085   1.000000   1.000000
    113        -50.908086      -50.908085   1.000000   1.000000
    114        -50.906253      -50.906253   1.000000   1.000000
    115        -50.904012      -50.904011   1.000000   1.000000
    116        -50.896561      -50.896561   1.000000   1.000000
    117        -50.896561      -50.896561   1.000000   1.000000
    118        -50.893203      -50.893203   1.000000   1.000000
    119        -50.893203      -50.893203   1.000000   1.000000
    120        -50.890043      -50.890042   1.000000   1.000000
    121        -50.887202      -50.887201   1.000000   1.000000
    122        -50.880587      -50.880586   1.000000   1.000000
    123        -50.880587      -50.880586   1.000000   1.000000
    124        -50.853919      -50.853918   1.000000   1.000000
    125        -50.847940      -50.847940   1.000000   1.000000
    126        -50.847940      -50.847940   1.000000   1.000000
    127        -50.813915      -50.813915   1.000000   1.000000
    128        -50.813915      -50.813915   1.000000   1.000000
    129        -50.794467      -50.794466   1.000000   1.000000
    130        -50.788486      -50.788485   1.000000   1.000000
    131        -50.788486      -50.788485   1.000000   1.000000
    132        -50.741458      -50.741458   1.000000   1.000000
    133        -50.740085      -50.740085   1.000000   1.000000
    134        -50.740085      -50.740085   1.000000   1.000000
    135        -50.719439      -50.719439   1.000000   1.000000
    136        -50.713439      -50.713438   1.000000   1.000000
    137        -50.713439      -50.713438   1.000000   1.000000
    138        -50.704182      -50.704182   1.000000   1.000000
    139        -50.693559      -50.693559   1.000000   1.000000
    140        -50.693559      -50.693559   1.000000   1.000000
    141        -50.667619      -50.667619   1.000000   1.000000
    142        -50.630431      -50.630431   1.000000   1.000000
    143        -50.619801      -50.619801   1.000000   1.000000
    144        -50.619801      -50.619801   1.000000   1.000000
    145        -21.800648      -21.800647   1.000000   1.000000
    146        -21.691387      -21.691386   1.000000   1.000000
    147        -21.561053      -21.561052   1.000000   1.000000
    148        -21.432076      -21.432075   1.000000   1.000000
    149        -21.300252      -21.300251   1.000000   1.000000
    150        -21.199023      -21.199022   1.000000   1.000000
    151        -21.112149      -21.112148   1.000000   1.000000
    152        -21.001923      -21.001922   1.000000   1.000000
    153        -21.001923      -21.001922   1.000000   1.000000
    154        -20.991160      -20.991159   1.000000   1.000000
    155        -20.954342      -20.954341   1.000000   1.000000
    156        -20.954342      -20.954341   1.000000   1.000000
    157        -20.906382      -20.906381   1.000000   1.000000
    158        -20.906382      -20.906381   1.000000   1.000000
    159        -20.886399      -20.886398   1.000000   1.000000
    160        -20.834446      -20.834446   1.000000   1.000000
    161        -20.834446      -20.834446   1.000000   1.000000
    162        -20.779403      -20.779403   1.000000   1.000000
    163        -20.714750      -20.714749   1.000000   1.000000
    164        -20.714750      -20.714749   1.000000   1.000000
    165        -20.678078      -20.678077   1.000000   1.000000
    166        -20.649108      -20.649107   1.000000   1.000000
    167        -20.613080      -20.613080   1.000000   1.000000
    168        -20.613080      -20.613080   1.000000   1.000000
    169        -20.558733      -20.558732   1.000000   1.000000
    170        -20.558733      -20.558732   1.000000   1.000000
    171        -20.521902      -20.521901   1.000000   1.000000
    172        -20.521902      -20.521901   1.000000   1.000000
    173        -20.494395      -20.494395   1.000000   1.000000
    174        -20.494395      -20.494395   1.000000   1.000000
    175        -20.429184      -20.429183   1.000000   1.000000
    176        -20.429184      -20.429183   1.000000   1.000000
    177        -20.352919      -20.352919   1.000000   1.000000
    178        -20.352919      -20.352919   1.000000   1.000000
    179        -20.326626      -20.326626   1.000000   1.000000
    180        -20.326626      -20.326626   1.000000   1.000000
    181        -20.240415      -20.240414   1.000000   1.000000
    182        -20.240415      -20.240414   1.000000   1.000000
    183        -20.211364      -20.211364   1.000000   1.000000
    184        -20.191496      -20.191496   1.000000   1.000000
    185        -20.191496      -20.191496   1.000000   1.000000
    186        -20.153582      -20.153581   1.000000   1.000000
    187        -20.153582      -20.153581   1.000000   1.000000
    188        -20.145086      -20.145086   1.000000   1.000000
    189        -20.137463      -20.137463   1.000000   1.000000
    190        -20.137463      -20.137463   1.000000   1.000000
    191        -20.132395      -20.132395   1.000000   1.000000
    192        -20.132395      -20.132395   1.000000   1.000000
    193        -20.105985      -20.105985   1.000000   1.000000
    194        -20.105985      -20.105985   1.000000   1.000000
    195        -20.087187      -20.087187   1.000000   1.000000
    196        -20.087187      -20.087187   1.000000   1.000000
    197        -20.073498      -20.073497   1.000000   1.000000
    198        -20.073498      -20.073497   1.000000   1.000000
    199        -20.057322      -20.057322   1.000000   1.000000
    200        -20.057322      -20.057322   1.000000   1.000000
    201        -20.036363      -20.036363   1.000000   1.000000
    202        -20.036363      -20.036363   1.000000   1.000000
    203        -20.029495      -20.029494   1.000000   1.000000
    204        -20.029495      -20.029494   1.000000   1.000000
    205        -20.017450      -20.017449   1.000000   1.000000
    206        -19.988901      -19.988901   1.000000   1.000000
    207        -19.988901      -19.988901   1.000000   1.000000
    208        -19.944028      -19.944027   1.000000   1.000000
    209        -19.890183      -19.890182   1.000000   1.000000
    210        -19.831800      -19.831800   1.000000   1.000000
    211        -19.805818      -19.805817   1.000000   1.000000
    212        -19.805818      -19.805817   1.000000   1.000000
    213        -19.769279      -19.769278   1.000000   1.000000
    214        -19.736501      -19.736500   1.000000   1.000000
    215        -19.733138      -19.733137   1.000000   1.000000
    216        -19.723031      -19.723030   1.000000   1.000000
    217        -19.723031      -19.723030   1.000000   1.000000
    218        -19.700344      -19.700344   1.000000   1.000000
    219        -19.671117      -19.671116   1.000000   1.000000
    220        -19.649006      -19.649005   1.000000   1.000000
    221        -19.640152      -19.640151   1.000000   1.000000
    222        -19.605098      -19.605098   1.000000   1.000000
    223        -10.371820      -10.371819   1.000000   1.000000
    224        -10.332501      -10.332500   1.000000   1.000000
    225        -10.308985      -10.308984   1.000000   1.000000
    226        -10.297130      -10.297129   1.000000   1.000000
    227        -10.222450      -10.222449   1.000000   1.000000
    228        -10.152377      -10.152376   1.000000   1.000000
    229        -10.133333      -10.133332   1.000000   1.000000
    230        -10.069310      -10.069309   1.000000   1.000000
    231         -9.710493       -9.710492   1.000000   1.000000
    232         -9.686819       -9.686818   1.000000   1.000000
    233         -9.332788       -9.332787   1.000000   1.000000
    234         -9.332788       -9.332787   1.000000   1.000000
    235         -9.309434       -9.309433   1.000000   1.000000
    236         -9.309434       -9.309433   1.000000   1.000000
    237         -9.286712       -9.286711   1.000000   1.000000
    238         -9.286712       -9.286711   1.000000   1.000000
    239         -9.271950       -9.271949   1.000000   1.000000
    240         -9.271950       -9.271949   1.000000   1.000000
    241         -9.268318       -9.268317   1.000000   1.000000
    242         -9.246489       -9.246488   1.000000   1.000000
    243         -9.207066       -9.207065   1.000000   1.000000
    244         -9.207066       -9.207065   1.000000   1.000000
    245         -9.200552       -9.200551   1.000000   1.000000
    246         -9.200552       -9.200551   1.000000   1.000000
    247         -9.137285       -9.137284   1.000000   1.000000
    248         -9.137285       -9.137284   1.000000   1.000000
    249         -9.100483       -9.100482   1.000000   1.000000
    250         -9.100483       -9.100482   1.000000   1.000000
    251         -9.050788       -9.050787   1.000000   1.000000
    252         -9.050788       -9.050787   1.000000   1.000000
    253         -9.003666       -9.003665   1.000000   1.000000
    254         -9.003666       -9.003665   1.000000   1.000000
    255         -8.874367       -8.874366   1.000000   1.000000
    256         -8.874367       -8.874366   1.000000   1.000000
    257         -8.769694       -8.769693   1.000000   1.000000
    258         -8.769694       -8.769693   1.000000   1.000000
    259         -8.703978       -8.703978   1.000000   1.000000
    260         -8.670842       -8.670842   1.000000   1.000000
    261         -8.656669       -8.656668   1.000000   1.000000
    262         -8.656669       -8.656668   1.000000   1.000000
    263         -8.648684       -8.648683   1.000000   1.000000
    264         -8.644160       -8.644160   1.000000   1.000000
    265         -8.612679       -8.612678   1.000000   1.000000
    266         -8.586590       -8.586589   1.000000   1.000000
    267         -8.557556       -8.557555   1.000000   1.000000
    268         -8.557556       -8.557555   1.000000   1.000000
    269         -8.556526       -8.556526   1.000000   1.000000
    270         -8.537473       -8.537473   1.000000   1.000000
    271         -8.528513       -8.528511   1.000000   1.000000
    272         -8.528513       -8.528511   1.000000   1.000000
    273         -8.511539       -8.511538   1.000000   1.000000
    274         -8.497715       -8.497713   1.000000   1.000000
    275         -8.497715       -8.497713   1.000000   1.000000
    276         -8.480324       -8.480323   1.000000   1.000000
    277         -8.469352       -8.469350   1.000000   1.000000
    278         -8.469352       -8.469350   1.000000   1.000000
    279         -8.446907       -8.446906   1.000000   1.000000
    280         -8.446907       -8.446906   1.000000   1.000000
    281         -8.403365       -8.403363   1.000000   1.000000
    282         -8.382414       -8.382412   1.000000   1.000000
    283         -8.382414       -8.382412   1.000000   1.000000
    284         -8.323631       -8.323630   1.000000   1.000000
    285         -8.323631       -8.323630   1.000000   1.000000
    286         -8.253884       -8.253882   1.000000   1.000000
    287         -8.250487       -8.250485   1.000000   1.000000
    288         -8.250487       -8.250485   1.000000   1.000000
    289         -8.141520       -8.141519   1.000000   1.000000
    290         -8.141520       -8.141519   1.000000   1.000000
    291         -8.104079       -8.104078   1.000000   1.000000
    292         -8.104079       -8.104078   1.000000   1.000000
    293         -8.080218       -8.080217   1.000000   1.000000
    294         -8.059624       -8.059622   1.000000   1.000000
    295         -8.009234       -8.009233   1.000000   1.000000
    296         -7.979422       -7.979421   1.000000   1.000000
    297         -7.979422       -7.979421   1.000000   1.000000
    298         -7.913208       -7.913207   1.000000   1.000000
    299         -7.913208       -7.913207   1.000000   1.000000
    300         -7.906610       -7.906608   1.000000   1.000000
    301         -7.863938       -7.863937   1.000000   1.000000
    302         -7.863938       -7.863937   1.000000   1.000000
    303         -7.803855       -7.803854   1.000000   1.000000
    304         -7.803855       -7.803854   1.000000   1.000000
    305         -7.686002       -7.686001   1.000000   1.000000
    306         -7.686002       -7.686001   1.000000   1.000000
    307         -7.636852       -7.636851   1.000000   1.000000
    308         -7.636852       -7.636851   1.000000   1.000000
    309         -7.509999       -7.509998   1.000000   1.000000
    310         -7.509999       -7.509998   1.000000   1.000000
    311         -7.508044       -7.508043   1.000000   1.000000
    312         -7.478820       -7.478819   1.000000   1.000000
    313         -7.478820       -7.478819   1.000000   1.000000
    314         -7.469086       -7.469085   1.000000   1.000000
    315         -7.448614       -7.448613   1.000000   1.000000
    316         -7.448614       -7.448613   1.000000   1.000000
    317         -7.378959       -7.378957   1.000000   1.000000
    318         -7.378959       -7.378957   1.000000   1.000000
    319         -7.335879       -7.335878   1.000000   1.000000
    320         -7.335879       -7.335878   1.000000   1.000000
    321         -7.303502       -7.303501   1.000000   1.000000
    322         -7.246506       -7.246505   1.000000   1.000000
    323         -7.246506       -7.246505   1.000000   1.000000
    324         -7.206180       -7.206178   1.000000   1.000000
    325         -7.206180       -7.206178   1.000000   1.000000
    326         -7.182629       -7.182628   1.000000   1.000000
    327         -7.182629       -7.182628   1.000000   1.000000
    328         -7.099538       -7.099537   1.000000   1.000000
    329         -7.099538       -7.099537   1.000000   1.000000
    330         -7.034849       -7.034847   1.000000   1.000000
    331         -7.019725       -7.019724   1.000000   1.000000
    332         -7.019725       -7.019724   1.000000   1.000000
    333         -6.866727       -6.866725   1.000000   1.000000
    334         -6.866727       -6.866725   1.000000   1.000000
    335         -6.697334       -6.697333   1.000000   1.000000
    336         -6.563104       -6.563103   1.000000   1.000000
    337         -6.560225       -6.560223   1.000000   1.000000
    338         -6.560225       -6.560223   1.000000   1.000000
    339         -6.441313       -6.441312   1.000000   1.000000
    340         -6.381173       -6.381172   1.000000   1.000000
    341         -6.381173       -6.381172   1.000000   1.000000
    342         -6.292014       -6.292013   1.000000   1.000000
    343         -6.292014       -6.292013   1.000000   1.000000
    344         -6.224499       -6.224498   1.000000   1.000000
    345         -6.224499       -6.224498   1.000000   1.000000
    346         -6.102305       -6.102304   1.000000   1.000000
    347         -6.102305       -6.102304   1.000000   1.000000
    348         -6.064132       -6.064131   1.000000   1.000000
    349         -6.064132       -6.064131   1.000000   1.000000
    350         -6.056212       -6.056211   1.000000   1.000000
    351         -6.014306       -6.014305   1.000000   1.000000
    352         -6.014306       -6.014305   1.000000   1.000000
    353         -5.958464       -5.958463   1.000000   1.000000
    354         -5.958464       -5.958463   1.000000   1.000000
    355         -5.955335       -5.955334   1.000000   1.000000
    356         -5.943800       -5.943799   1.000000   1.000000
    357         -5.930147       -5.930147   1.000000   1.000000
    358         -5.918584       -5.918583   1.000000   1.000000
    359         -5.918584       -5.918583   1.000000   1.000000
    360         -5.898276       -5.898275   1.000000   1.000000
    361         -5.895590       -5.895589   1.000000   1.000000
    362         -5.895590       -5.895589   1.000000   1.000000
    363         -5.853777       -5.853775   1.000000   1.000000
    364         -5.835037       -5.835036   1.000000   1.000000
    365         -5.835037       -5.835036   1.000000   1.000000
    366         -5.818255       -5.818254   1.000000   1.000000
    367         -5.813336       -5.813335   1.000000   1.000000
    368         -5.813336       -5.813335   1.000000   1.000000
    369         -5.773346       -5.773345   1.000000   1.000000
    370         -5.709584       -5.709583   1.000000   1.000000
    371         -5.709584       -5.709583   1.000000   1.000000
    372         -5.693154       -5.693153   1.000000   1.000000
    373         -5.655487       -5.655486   1.000000   1.000000
    374         -5.655487       -5.655486   1.000000   1.000000
    375         -5.624922       -5.624921   1.000000   1.000000
    376         -5.573017       -5.573016   1.000000   1.000000
    377         -5.572435       -5.572434   1.000000   1.000000
    378         -5.572435       -5.572434   1.000000   1.000000
    379         -5.536123       -5.536122   1.000000   1.000000
    380         -5.491496       -5.491495   1.000000   1.000000
    381         -5.424960       -5.424959   1.000000   1.000000
    382         -5.424960       -5.424959   1.000000   1.000000
    383         -5.362523       -5.362522   1.000000   1.000000
    384         -5.357560       -5.357559   1.000000   1.000000
    385         -5.357560       -5.357559   1.000000   1.000000
    386         -5.302059       -5.302058   1.000000   1.000000
    387         -5.302059       -5.302058   1.000000   1.000000
    388         -5.265982       -5.265981   1.000000   1.000000
    389         -5.247729       -5.247728   1.000000   1.000000
    390         -5.247729       -5.247728   1.000000   1.000000
    391         -5.239331       -5.239330   1.000000   1.000000
    392         -5.124459       -5.124458   1.000000   1.000000
    393         -5.124459       -5.124458   1.000000   1.000000
    394         -5.116943       -5.116942   1.000000   1.000000
    395         -5.085505       -5.085504   1.000000   1.000000
    396         -5.085505       -5.085504   1.000000   1.000000
    397         -5.081018       -5.081017   1.000000   1.000000
    398         -5.055693       -5.055692   1.000000   1.000000
    399         -5.055693       -5.055692   1.000000   1.000000
    400         -5.052679       -5.052679   1.000000   1.000000
    401         -5.013442       -5.013441   1.000000   1.000000
    402         -4.989673       -4.989672   1.000000   1.000000
    403         -4.989673       -4.989672   1.000000   1.000000
    404         -4.974007       -4.974006   1.000000   1.000000
    405         -4.932420       -4.932418   1.000000   1.000000
    406         -4.932420       -4.932418   1.000000   1.000000
    407         -4.914871       -4.914870   1.000000   1.000000
    408         -4.899212       -4.899211   1.000000   1.000000
    409         -4.899212       -4.899211   1.000000   1.000000
    410         -4.859708       -4.859707   1.000000   1.000000
    411         -4.858334       -4.858333   1.000000   1.000000
    412         -4.858334       -4.858333   1.000000   1.000000
    413         -4.832647       -4.832646   1.000000   1.000000
    414         -4.774688       -4.774688   1.000000   1.000000
    415         -4.675306       -4.675305   1.000000   1.000000
    416         -4.675306       -4.675305   1.000000   1.000000
    417         -4.658579       -4.658578   1.000000   1.000000
    418         -4.620557       -4.620556   1.000000   1.000000
    419         -4.620557       -4.620556   1.000000   1.000000
    420         -4.572940       -4.572939   1.000000   1.000000
    421         -4.522646       -4.522645   1.000000   1.000000
    422         -4.471051       -4.471049   1.000000   1.000000
    423         -4.471051       -4.471049   1.000000   1.000000
    424         -4.398323       -4.398322   1.000000   1.000000
    425         -4.393308       -4.393306   1.000000   1.000000
    426         -4.393308       -4.393306   1.000000   1.000000
    427         -4.357396       -4.357396   1.000000   1.000000
    428         -4.321301       -4.321300   1.000000   1.000000
    429         -4.290359       -4.290358   1.000000   1.000000
    430         -4.290359       -4.290358   1.000000   1.000000
    431         -4.258848       -4.258847   1.000000   1.000000
    432         -4.244434       -4.244433   1.000000   1.000000
    433         -4.244434       -4.244433   1.000000   1.000000
    434         -4.242458       -4.242457   1.000000   1.000000
    435         -4.182045       -4.182044   1.000000   1.000000
    436         -4.182045       -4.182044   1.000000   1.000000
    437         -4.108114       -4.108113   1.000000   1.000000
    438         -4.108114       -4.108113   1.000000   1.000000
    439         -4.077645       -4.077644   1.000000   1.000000
    440         -4.061773       -4.061772   1.000000   1.000000
    441         -4.061773       -4.061772   1.000000   1.000000
    442         -4.042914       -4.042913   1.000000   1.000000
    443         -3.941126       -3.941125   1.000000   1.000000
    444         -3.941126       -3.941125   1.000000   1.000000
    445         -3.940341       -3.940340   1.000000   1.000000
    446         -3.873110       -3.873109   1.000000   1.000000
    447         -3.723802       -3.723801   1.000000   1.000000
    448         -3.703600       -3.703598   1.000000   1.000000
    449         -3.703600       -3.703598   1.000000   1.000000
    450         -3.650750       -3.650750   1.000000   1.000000
    451         -3.592654       -3.592653   1.000000   1.000000
    452         -3.592654       -3.592653   1.000000   1.000000
    453         -3.498286       -3.498285   1.000000   1.000000
    454         -3.415957       -3.415956   1.000000   1.000000
    455         -3.262573       -3.262572   1.000000   1.000000
    456         -3.239633       -3.239632   1.000000   1.000000
    457         -3.226502       -3.226501   1.000000   1.000000
    458         -3.199828       -3.199827   1.000000   1.000000
    459         -3.188015       -3.188014   1.000000   1.000000
    460         -3.182272       -3.182271   1.000000   1.000000
    461         -3.140069       -3.140067   1.000000   1.000000
    462         -3.123607       -3.123606   1.000000   1.000000
    463         -3.115390       -3.115389   1.000000   1.000000
    464         -3.098971       -3.098970   1.000000   1.000000