       N       E                     dE             d eps       ncg     rms          rms(c)
DAV:   1     0.141985038270E+05    0.14199E+05   -0.61791E+05 89664   0.135E+03
DAV:   2     0.394750775450E+03   -0.13804E+05   -0.13151E+05102896   0.567E+02
DAV:   3    -0.101118884067E+04   -0.14059E+04   -0.13724E+04 90320   0.163E+02
DAV:   4    -0.106872092359E+04   -0.57532E+02   -0.56095E+02104992   0.406E+01
DAV:   5    -0.107054239127E+04   -0.18215E+01   -0.17834E+01 97360   0.635E+00
DAV:   6    -0.107062528474E+04   -0.82893E-01   -0.82251E-01104320   0.147E+00
DAV:   7    -0.107062934934E+04   -0.40646E-02   -0.40538E-02 96432   0.266E-01
DAV:   8    -0.107062960310E+04   -0.25376E-03   -0.25341E-03 98192   0.655E-02    0.343E+02
DAV:   9    -0.665096791087E+03    0.40553E+03   -0.15203E+03 94560   0.615E+01    0.253E+02
DAV:  10    -0.646341150245E+03    0.18756E+02   -0.20754E+02 96128   0.331E+01    0.139E+02
DAV:  11    -0.614024372923E+03    0.32317E+02   -0.58459E+01 91136   0.136E+01    0.520E+01
DAV:  12    -0.590516561077E+03    0.23508E+02   -0.72526E+01 97184   0.139E+01    0.427E+01
DAV:  13    -0.573607479558E+03    0.16909E+02   -0.37949E+01 93392   0.940E+00    0.283E+01
DAV:  14    -0.602244702870E+03   -0.28637E+02   -0.76927E+00 83584   0.407E+00    0.234E+01
DAV:  15    -0.653003931319E+03   -0.50759E+02   -0.12242E+01 87408   0.407E+00    0.221E+01
DAV:  16    -0.664617365581E+03   -0.11613E+02   -0.18816E+00 90112   0.199E+00    0.212E+01
DAV:  17    -0.668439569418E+03   -0.38222E+01   -0.26185E-01 89264   0.923E-01    0.207E+01
DAV:  18    -0.689572768228E+03   -0.21133E+02   -0.35020E+00 87280   0.233E+00    0.196E+01
DAV:  19    -0.752435576092E+03   -0.62863E+02   -0.30029E+01 90528   0.606E+00    0.189E+01
DAV:  20    -0.814094668492E+03   -0.61659E+02   -0.48030E+01 89712   0.713E+00    0.161E+01
DAV:  21    -0.845040394939E+03   -0.30946E+02   -0.27511E+01 91712   0.537E+00    0.116E+01
DAV:  22    -0.859080424062E+03   -0.14040E+02   -0.13369E+01 86272   0.371E+00    0.103E+01
DAV:  23    -0.861576737593E+03   -0.24963E+01   -0.23078E+00 89216   0.232E+00    0.770E+00
DAV:  24    -0.864831099439E+03   -0.32544E+01   -0.12535E+00 88432   0.169E+00    0.734E+00
DAV:  25    -0.864475346013E+03    0.35575E+00   -0.56352E-01 84912   0.122E+00    0.567E+00
DAV:  26    -0.866770124445E+03   -0.22948E+01   -0.35567E-01 83520   0.100E+00    0.431E+00
DAV:  27    -0.867680062201E+03   -0.90994E+00   -0.19113E-01 84432   0.717E-01    0.338E+00
DAV:  28    -0.867572200469E+03    0.10786E+00   -0.55117E-02 88032   0.473E-01    0.260E+00
DAV:  29    -0.867933852911E+03   -0.36165E+00   -0.70896E-02 84800   0.472E-01    0.205E+00
DAV:  30    -0.868049795915E+03   -0.11594E+00   -0.60483E-02 87008   0.444E-01    0.141E+00
DAV:  31    -0.868765108796E+03   -0.71531E+00   -0.42313E-02 80432   0.249E-01    0.988E-01
DAV:  32    -0.869367423625E+03   -0.60231E+00   -0.72118E-02 83392   0.239E-01    0.788E-01
DAV:  33    -0.869894810432E+03   -0.52739E+00   -0.72247E-02 82528   0.226E-01    0.576E-01
DAV:  34    -0.870257923074E+03   -0.36311E+00   -0.38524E-02 85712   0.149E-01    0.386E-01
DAV:  35    -0.870269199591E+03   -0.11277E-01   -0.95941E-03 91536   0.107E-01    0.213E-01
DAV:  36    -0.870287727516E+03   -0.18528E-01   -0.17919E-03 81024   0.539E-02    0.159E-01
DAV:  37    -0.870335514812E+03   -0.47787E-01   -0.45207E-04 75456   0.316E-02    0.133E-01
DAV:  38    -0.870384418287E+03   -0.48903E-01   -0.23679E-04 71472   0.187E-02    0.121E-01
DAV:  39    -0.870433465537E+03   -0.49047E-01   -0.23881E-04 74960   0.155E-02    0.115E-01
DAV:  40    -0.870479811107E+03   -0.46346E-01   -0.17878E-04 76304   0.147E-02    0.105E-01
DAV:  41    -0.870536621414E+03   -0.56810E-01   -0.11179E-03 77232   0.339E-02    0.983E-02
DAV:  42    -0.870516907487E+03    0.19714E-01   -0.12320E-03 78704   0.375E-02    0.667E-02
DAV:  43    -0.870593447730E+03   -0.76540E-01   -0.29236E-04 81952   0.222E-02    0.428E-02
DAV:  44    -0.870623192496E+03   -0.29745E-01   -0.35813E-05 71808   0.101E-02    0.315E-02
DAV:  45    -0.870642486975E+03   -0.19294E-01   -0.12390E-05 55632   0.641E-03    0.230E-02
DAV:  46    -0.870652901335E+03   -0.10414E-01   -0.35167E-05 65568   0.729E-03    0.182E-02
DAV:  47    -0.870655908412E+03   -0.30071E-02   -0.17262E-05 62272   0.570E-03    0.160E-02
DAV:  48    -0.870659777136E+03   -0.38687E-02   -0.28521E-05 64448   0.755E-03    0.137E-02
DAV:  49    -0.870663615444E+03   -0.38383E-02   -0.63060E-05 66432   0.865E-03    0.114E-02
DAV:  50    -0.870667079189E+03   -0.34637E-02   -0.33559E-05 65200   0.722E-03    0.909E-03
DAV:  51    -0.870667872132E+03   -0.79294E-03   -0.26103E-05 62128   0.629E-03    0.685E-03
DAV:  52    -0.870668111526E+03   -0.23939E-03   -0.49581E-06 54736   0.339E-03    0.551E-03
DAV:  53    -0.870668274210E+03   -0.16268E-03   -0.62076E-06 55200   0.311E-03    0.498E-03
DAV:  54    -0.870668396159E+03   -0.12195E-03   -0.37143E-06 53536   0.272E-03    0.429E-03
DAV:  55    -0.870668567439E+03   -0.17128E-03   -0.20869E-06 52688   0.240E-03    0.398E-03
DAV:  56    -0.870668825105E+03   -0.25767E-03   -0.36900E-06 51808   0.256E-03    0.339E-03
DAV:  57    -0.870668957180E+03   -0.13208E-03   -0.28730E-06 54480   0.232E-03    0.300E-03
DAV:  58    -0.870668915319E+03    0.41862E-04   -0.17110E-06 53216   0.209E-03    0.317E-03
DAV:  59    -0.870668884733E+03    0.30586E-04   -0.10317E-06 52000   0.159E-03    0.259E-03
DAV:  60    -0.870668851333E+03    0.33400E-04   -0.88753E-07 52528   0.154E-03    0.217E-03
DAV:  61    -0.870668939808E+03   -0.88476E-04   -0.65151E-07 53344   0.125E-03    0.197E-03
DAV:  62    -0.870669135927E+03   -0.19612E-03   -0.56565E-07 52576   0.120E-03    0.170E-03
DAV:  63    -0.870669243908E+03   -0.10798E-03   -0.61260E-07 51152   0.117E-03    0.176E-03
DAV:  64    -0.870669450892E+03   -0.20698E-03   -0.13190E-06 49760   0.168E-03    0.165E-03
DAV:  65    -0.870669672971E+03   -0.22208E-03   -0.15284E-06 52544   0.167E-03    0.144E-03
DAV:  66    -0.870669985097E+03   -0.31213E-03   -0.27157E-06 51696   0.232E-03    0.142E-03
DAV:  67    -0.870670139431E+03   -0.15433E-03   -0.14046E-06 52192   0.152E-03    0.110E-03
DAV:  68    -0.870670185371E+03   -0.45940E-04   -0.36967E-07 50496   0.114E-03    0.735E-04
DAV:  69    -0.870670206213E+03   -0.20842E-04   -0.15313E-07 48560   0.670E-04    0.495E-04
DAV:  70    -0.870670225392E+03   -0.19179E-04   -0.79897E-08 47360   0.490E-04    0.371E-04
DAV:  71    -0.870670240162E+03   -0.14770E-04   -0.50418E-08 48288   0.354E-04    0.219E-04
DAV:  72    -0.870670252806E+03   -0.12644E-04   -0.31675E-08 47120   0.318E-04    0.174E-04
DAV:  73    -0.870670258351E+03   -0.55448E-05   -0.17769E-08 46992   0.231E-04
   1 F= -.87067026E+03 E0= -.87063882E+03  d E =-.628841E-01  mag=     0.0001
