 vasp.6.3.2 27Jun22 (build Apr 27 2024 20:17:35) complex                        
  
 executed on             LinuxIFC date 2025.03.18  18:54:56
 running on   80 total cores
 distrk:  each k-point on   80 cores,    1 groups
 distr:  one band on NCORE=   5 cores,   16 groups


--------------------------------------------------------------------------------------------------------


 INCAR:
   SYSTEM = IrO2-110	
   ENCUT = 500
   ALGO = Normal
   NELMIN = 6
   NELM = 300
   NELMDL = -8
   EDIFF = 1.0E-5
   LREAL = AUTO
   AMIN = 0.01
   PREC = Accurate
   ISPIN = 2
   NGX = 108
   NGY = 72
   NGZ = 640
   ADDGRID = .TRUE.
   LASPH = .TRUE.
   NSW = 0
   EDIFFG = -0.025
   IBRION = 2
   ISIF = 0
   POTIM = 0.50
   ISMEAR = 0
   SIGMA = 0.0500
   LORBIT = 10
   NEDOS = 6001
   NWRITE = 1
   LWAVE = .FALSE.
   LCHARG = .TRUE.
   LAECHG = .TRUE.
   NCORE = 5
   LPLANE = .TRUE.

 POTCAR:    PAW_PBE H_GW 21Apr2008                
 POTCAR:    PAW_PBE Ir_sv_GW 23Mar2010            
 POTCAR:    PAW_PBE O_GW_new 19Mar2012            
 -----------------------------------------------------------------------------
|                                                                             |
|           W    W    AA    RRRRR   N    N  II  N    N   GGGG   !!!           |
|           W    W   A  A   R    R  NN   N  II  NN   N  G    G  !!!           |
|           W    W  A    A  R    R  N N  N  II  N N  N  G       !!!           |
|           W WW W  AAAAAA  RRRRR   N  N N  II  N  N N  G  GGG   !            |
|           WW  WW  A    A  R   R   N   NN  II  N   NN  G    G                |
|           W    W  A    A  R    R  N    N  II  N    N   GGGG   !!!           |
|                                                                             |
|     You use a magnetic or noncollinear calculation, but did not specify     |
|     the initial magnetic moment with the MAGMOM tag. Note that a            |
|     default of 1 will be used for all atoms. This ferromagnetic setup       |
|     may break the symmetry of the crystal, in particular it may rule        |
|     out finding an antiferromagnetic solution. Thence, we recommend         |
|     setting the initial magnetic moment manually or verifying carefully     |
|     that this magnetic setup is desired.                                    |
|                                                                             |
 -----------------------------------------------------------------------------

 POTCAR:    PAW_PBE H_GW 21Apr2008                
  local pseudopotential read in
  kinetic energy density of atom read in
  atomic valenz-charges read in
  non local Contribution for L=           0  read in
    real space projection operators read in
  non local Contribution for L=           0  read in
    real space projection operators read in
  non local Contribution for L=           1  read in
    real space projection operators read in
  non local Contribution for L=           1  read in
    real space projection operators read in
  non local Contribution for L=           2  read in
    real space projection operators read in
    PAW grid and wavefunctions read in
 
   number of l-projection  operators is LMAX  =           5
   number of lm-projection operators is LMMAX =          13
 
 POTCAR:    PAW_PBE Ir_sv_GW 23Mar2010            
  local pseudopotential read in
  partial core-charges read in
  partial kinetic energy density read in
  kinetic energy density of atom read in
  atomic valenz-charges read in
  non local Contribution for L=           0  read in
    real space projection operators read in
  non local Contribution for L=           0  read in
    real space projection operators read in
  non local Contribution for L=           0  read in
    real space projection operators read in
  non local Contribution for L=           1  read in
    real space projection operators read in
  non local Contribution for L=           1  read in
    real space projection operators read in
  non local Contribution for L=           2  read in
    real space projection operators read in
  non local Contribution for L=           2  read in
    real space projection operators read in
  non local Contribution for L=           3  read in
    real space projection operators read in
    PAW grid and wavefunctions read in
 
   number of l-projection  operators is LMAX  =           8
   number of lm-projection operators is LMMAX =          26
 
 POTCAR:    PAW_PBE O_GW_new 19Mar2012            
  local pseudopotential read in
  partial core-charges read in
  partial kinetic energy density read in
  kinetic energy density of atom read in
  atomic valenz-charges read in
  non local Contribution for L=           0  read in
    real space projection operators read in
  non local Contribution for L=           0  read in
    real space projection operators read in
  non local Contribution for L=           0  read in
    real space projection operators read in
  non local Contribution for L=           1  read in
    real space projection operators read in
  non local Contribution for L=           1  read in
    real space projection operators read in
  non local Contribution for L=           1  read in
    real space projection operators read in
  non local Contribution for L=           2  read in
    real space projection operators read in
  non local Contribution for L=           2  read in
    real space projection operators read in
    PAW grid and wavefunctions read in
 
   number of l-projection  operators is LMAX  =           8
   number of lm-projection operators is LMMAX =          22
 
 Optimization of the real space projectors (new method)

 maximal supplied QI-value         = 34.20
 optimisation between [QCUT,QGAM] = [ 11.29, 22.57] = [ 35.68,142.71] Ry 
 Optimized for a Real-space Cutoff    1.39 Angstroem

   l    n(q)    QCUT    max X(q) W(low)/X(q) W(high)/X(q)  e(spline) 
   0      9    11.287    26.161    0.83E-04    0.13E-04    0.69E-06
   0      9    11.287    15.773    0.76E-04    0.14E-04    0.67E-06
   1      9    11.287     3.232    0.52E-04    0.72E-04    0.76E-06
   1      9    11.287     2.453    0.58E-04    0.31E-04    0.62E-06
   2      8    11.287     6.749    0.12E-03    0.49E-03    0.66E-06
 Optimization of the real space projectors (new method)

 maximal supplied QI-value         = 16.25
 optimisation between [QCUT,QGAM] = [ 11.38, 22.75] = [ 36.24,144.96] Ry 
 Optimized for a Real-space Cutoff    1.56 Angstroem

   l    n(q)    QCUT    max X(q) W(low)/X(q) W(high)/X(q)  e(spline) 
   0     11    11.376   331.533    0.45E-04    0.10E-03    0.18E-05
   0     11    11.376   348.190    0.46E-04    0.10E-03    0.18E-05
   0     11    11.376     6.927    0.35E-04    0.83E-04    0.16E-05
   1     10    11.376     2.497    0.49E-05    0.43E-05    0.65E-07
   1     10    11.376     2.823    0.91E-05    0.21E-04    0.27E-06
   2     10    11.376    64.269    0.20E-03    0.53E-03    0.84E-06
   2     10    11.376    59.672    0.20E-03    0.54E-03    0.85E-06
   3      9    11.376     4.004    0.24E-03    0.21E-03    0.44E-06
 Optimization of the real space projectors (new method)

 maximal supplied QI-value         = 23.62
 optimisation between [QCUT,QGAM] = [ 11.34, 22.68] = [ 36.00,144.00] Ry 
 Optimized for a Real-space Cutoff    1.66 Angstroem

   l    n(q)    QCUT    max X(q) W(low)/X(q) W(high)/X(q)  e(spline) 
   0     11    11.338   116.464    0.17E-03    0.30E-03    0.79E-05
   0     11    11.338   116.329    0.16E-03    0.29E-03    0.76E-05
   0     11    11.338     0.942    0.79E-04    0.14E-03    0.33E-05
   1     11    11.338    54.336    0.24E-03    0.89E-03    0.12E-04
   1     11    11.338    48.242    0.24E-03    0.87E-03    0.12E-04
   1     11    11.338     2.381    0.18E-03    0.63E-03    0.86E-05
   2     10    11.338     2.237    0.15E-04    0.16E-04    0.66E-06
   2     10    11.338     2.457    0.37E-04    0.22E-04    0.97E-06
  PAW_PBE H_GW 21Apr2008                :
 energy of atom  1       EATOM=  -12.4884
 kinetic energy error for atom=    0.0109 (will be added to EATOM!!)
  PAW_PBE Ir_sv_GW 23Mar2010            :
 energy of atom  2       EATOM=-2883.8065
 kinetic energy error for atom=    0.0635 (will be added to EATOM!!)
  PAW_PBE O_GW_new 19Mar2012            :
 energy of atom  3       EATOM= -432.3788
 kinetic energy error for atom=    0.0278 (will be added to EATOM!!)
 
 
 POSCAR: Ir36 H12 O78
  positions in direct lattice
  velocities in cartesian coordinates
 exchange correlation table for  LEXCH =        8
   RHO(1)=    0.500       N(1)  =     2000
   RHO(2)=  100.500       N(2)  =     4000
 
 POSCAR: Ir36 H12 O78
  positions in direct lattice
  velocities in cartesian coordinates
 
 POSCAR: Ir36 H12 O78
  positions in direct lattice
  velocities in cartesian coordinates
 


--------------------------------------------------------------------------------------------------------


 ion  position               nearest neighbor table
   1  0.000  0.907  0.128-  49 1.01
   2  1.000  0.093  0.472- 115 1.00
   3  0.667  0.907  0.128-  51 1.01
   4  0.333  0.093  0.472- 116 1.00
   5  0.334  0.907  0.128-  50 1.01
   6  0.666  0.093  0.472- 117 1.00
   7  0.914  0.231  0.117- 121 0.98
   8  0.086  0.769  0.483- 122 0.98
   9  0.581  0.231  0.117- 125 0.98
  10  0.419  0.769  0.483- 126 0.98
  11  0.247  0.231  0.117- 123 0.98
  12  0.753  0.769  0.483- 124 0.98
  13  0.166  0.750  0.158-  52 1.96  58 1.98  56 2.01  55 2.01  49 2.06  50 2.06  15 3.18  14 3.18

  14  0.500  0.750  0.158-  53 1.96  59 1.98  57 2.01  56 2.01  50 2.06  51 2.06  13 3.18  15 3.18

  15  0.833  0.750  0.158-  54 1.96  60 1.98  55 2.01  57 2.01  51 2.06  49 2.06  13 3.18  14 3.18

  16  1.000  0.248  0.158- 121 1.99  61 2.00  54 2.00  58 2.01  52 2.01  60 2.02  17 3.18  18 3.18

  17  0.333  0.248  0.158- 123 1.99  62 2.00  52 2.00  59 2.01  53 2.01  58 2.02  18 3.18  16 3.18

  18  0.666  0.248  0.158- 125 1.99  63 2.00  53 2.00  60 2.01  54 2.01  59 2.02  17 3.18  16 3.18

  19  0.166  0.253  0.215-  64 1.97  70 1.98  62 2.00  61 2.00  67 2.00  68 2.01  21 3.18  20 3.18

  20  0.500  0.253  0.215-  65 1.97  71 1.98  63 2.00  62 2.00  68 2.00  69 2.01  19 3.18  21 3.18

  21  0.833  0.253  0.215-  66 1.97  72 1.98  61 2.00  63 2.00  69 2.00  67 2.01  19 3.18  20 3.18

  22  1.000  0.751  0.215-  55 1.97  73 1.97  64 2.00  66 2.01  70 2.01  72 2.01  23 3.18  24 3.18

  23  0.333  0.751  0.215-  56 1.97  74 1.97  65 2.00  64 2.01  71 2.01  70 2.01  24 3.18  22 3.18

  24  0.666  0.751  0.215-  57 1.97  75 1.97  66 2.00  65 2.01  72 2.01  71 2.01  23 3.18  22 3.18

  25  0.167  0.750  0.271-  76 1.97  82 1.97  73 2.01  74 2.01  79 2.01  80 2.01  27 3.18  26 3.18

  26  0.500  0.750  0.271-  77 1.97  83 1.97  74 2.01  75 2.01  81 2.01  80 2.01  25 3.18  27 3.18

  27  0.833  0.750  0.271-  78 1.97  84 1.97  73 2.01  75 2.01  79 2.01  81 2.01  25 3.18  26 3.18

  28  0.000  0.250  0.271-  85 1.97  67 1.97  84 2.01  76 2.01  78 2.01  82 2.01  29 3.18  30 3.18

  29  0.333  0.250  0.271-  86 1.97  68 1.97  77 2.01  83 2.01  82 2.01  76 2.01  30 3.18  28 3.18

  30  0.667  0.250  0.271-  87 1.97  69 1.97  83 2.01  77 2.01  78 2.01  84 2.01  29 3.18  28 3.18

  31  0.167  0.250  0.328-  88 1.97  94 1.97  85 2.01  86 2.01  91 2.01  92 2.01  33 3.18  32 3.18

  32  0.500  0.250  0.328-  89 1.97  95 1.97  86 2.01  87 2.01  93 2.01  92 2.01  31 3.18  33 3.18

  33  0.833  0.250  0.328-  90 1.97  96 1.97  85 2.01  87 2.01  91 2.01  93 2.01  31 3.18  32 3.18

  34  0.000  0.750  0.328-  79 1.97  97 1.97  96 2.01  88 2.01  90 2.01  94 2.01  35 3.18  36 3.18

  35  0.333  0.750  0.328-  80 1.97  98 1.97  89 2.01  95 2.01  94 2.01  88 2.01  36 3.18  34 3.18

  36  0.667  0.750  0.328-  81 1.97  99 1.97  95 2.01  89 2.01  90 2.01  96 2.01  35 3.18  34 3.18

  37  0.167  0.747  0.384- 106 1.97 100 1.98 103 2.00 104 2.00  98 2.00  97 2.01  39 3.18  38 3.18

  38  0.500  0.747  0.384- 107 1.97 101 1.98 104 2.00 105 2.00  99 2.00  98 2.01  37 3.18  39 3.18

  39  0.834  0.747  0.384- 108 1.97 102 1.98 105 2.00 103 2.00  97 2.00  99 2.01  37 3.18  38 3.18

  40  0.000  0.249  0.384- 109 1.97  91 1.97 108 2.00 106 2.01 102 2.01 100 2.01  41 3.18  42 3.18

  41  0.334  0.249  0.384- 110 1.97  92 1.97 106 2.00 107 2.01 100 2.01 101 2.01  42 3.18  40 3.18

  42  0.667  0.249  0.384- 111 1.97  93 1.97 107 2.00 108 2.01 101 2.01 102 2.01  41 3.18  40 3.18

  43  0.167  0.250  0.441- 118 1.96 112 1.98 109 2.01 110 2.01 116 2.06 115 2.06  45 3.18  44 3.18

  44  0.500  0.250  0.441- 119 1.96 113 1.98 110 2.01 111 2.01 117 2.06 116 2.06  43 3.18  45 3.18

  45  0.834  0.250  0.441- 120 1.96 114 1.98 111 2.01 109 2.01 115 2.06 117 2.06  43 3.18  44 3.18

  46  0.000  0.752  0.441- 122 1.99 103 2.00 118 2.00 114 2.01 120 2.01 112 2.02  47 3.18  48 3.18

  47  0.334  0.752  0.441- 126 1.99 104 2.00 119 2.00 112 2.01 118 2.01 113 2.02  48 3.18  46 3.18

  48  0.667  0.752  0.441- 124 1.99 105 2.00 120 2.00 113 2.01 119 2.01 114 2.02  47 3.18  46 3.18

  49  1.000  0.765  0.135-   1 1.01  13 2.06  15 2.06
  50  0.333  0.765  0.135-   5 1.01  14 2.06  13 2.06
  51  0.666  0.765  0.135-   3 1.01  15 2.06  14 2.06
  52  0.167  0.057  0.160-  13 1.96  17 2.00  16 2.01
  53  0.500  0.057  0.160-  14 1.96  18 2.00  17 2.01
  54  0.833  0.057  0.160-  15 1.96  16 2.00  18 2.01
  55  1.000  0.741  0.180-  22 1.97  15 2.01  13 2.01
  56  0.333  0.741  0.180-  23 1.97  13 2.01  14 2.01
  57  0.666  0.741  0.180-  24 1.97  14 2.01  15 2.01
  58  0.166  0.441  0.156-  13 1.98  16 2.01  17 2.02
  59  0.499  0.441  0.156-  14 1.98  17 2.01  18 2.02
  60  0.832  0.441  0.156-  15 1.98  18 2.01  16 2.02
  61  0.999  0.261  0.193-  21 2.00  16 2.00  19 2.00
  62  0.333  0.261  0.193-  19 2.00  17 2.00  20 2.00
  63  0.666  0.261  0.193-  20 2.00  18 2.00  21 2.00
  64  0.166  0.560  0.215-  19 1.97  22 2.00  23 2.01
  65  0.500  0.560  0.215-  20 1.97  23 2.00  24 2.01
  66  0.833  0.560  0.215-  21 1.97  24 2.00  22 2.01
  67  1.000  0.249  0.237-  28 1.97  19 2.00  21 2.01
  68  0.333  0.249  0.237-  29 1.97  20 2.00  19 2.01
  69  0.666  0.249  0.237-  30 1.97  21 2.00  20 2.01
  70  0.166  0.944  0.215-  19 1.98  22 2.01  23 2.01
  71  0.500  0.944  0.215-  20 1.98  23 2.01  24 2.01
  72  0.833  0.944  0.215-  21 1.98  24 2.01  22 2.01
  73  0.000  0.750  0.250-  22 1.97  25 2.01  27 2.01
  74  0.333  0.750  0.250-  23 1.97  26 2.01  25 2.01
  75  0.667  0.750  0.250-  24 1.97  26 2.01  27 2.01
  76  0.167  0.058  0.271-  25 1.97  28 2.01  29 2.01
  77  0.500  0.058  0.271-  26 1.97  29 2.01  30 2.01
  78  0.833  0.058  0.271-  27 1.97  28 2.01  30 2.01
  79  0.000  0.750  0.293-  34 1.97  27 2.01  25 2.01
  80  0.333  0.750  0.293-  35 1.97  26 2.01  25 2.01
  81  0.667  0.750  0.293-  36 1.97  26 2.01  27 2.01
  82  0.167  0.442  0.271-  25 1.97  28 2.01  29 2.01
  83  0.500  0.442  0.271-  26 1.97  30 2.01  29 2.01
  84  0.833  0.442  0.271-  27 1.97  28 2.01  30 2.01
  85  0.000  0.250  0.306-  28 1.97  31 2.01  33 2.01
  86  0.333  0.250  0.306-  29 1.97  32 2.01  31 2.01
  87  0.667  0.250  0.306-  30 1.97  32 2.01  33 2.01
  88  0.167  0.558  0.328-  31 1.97  34 2.01  35 2.01
  89  0.500  0.558  0.328-  32 1.97  35 2.01  36 2.01
  90  0.833  0.558  0.328-  33 1.97  34 2.01  36 2.01
  91  0.000  0.250  0.350-  40 1.97  33 2.01  31 2.01
  92  0.333  0.250  0.350-  41 1.97  32 2.01  31 2.01
  93  0.667  0.250  0.350-  42 1.97  32 2.01  33 2.01
  94  0.167  0.942  0.328-  31 1.97  34 2.01  35 2.01
  95  0.500  0.942  0.328-  32 1.97  36 2.01  35 2.01
  96  0.833  0.942  0.328-  33 1.97  34 2.01  36 2.01
  97  0.000  0.751  0.363-  34 1.97  39 2.00  37 2.01
  98  0.334  0.751  0.363-  35 1.97  37 2.00  38 2.01
  99  0.667  0.751  0.363-  36 1.97  38 2.00  39 2.01
 100  0.167  0.056  0.385-  37 1.98  41 2.01  40 2.01
 101  0.500  0.056  0.385-  38 1.98  42 2.01  41 2.01
 102  0.834  0.056  0.385-  39 1.98  40 2.01  42 2.01
 103  0.001  0.739  0.406-  37 2.00  46 2.00  39 2.00
 104  0.334  0.739  0.406-  38 2.00  47 2.00  37 2.00
 105  0.667  0.739  0.406-  39 2.00  48 2.00  38 2.00
 106  0.167  0.440  0.384-  37 1.97  41 2.00  40 2.01
 107  0.500  0.440  0.384-  38 1.97  42 2.00  41 2.01
 108  0.834  0.440  0.384-  39 1.97  40 2.00  42 2.01
 109  0.000  0.259  0.419-  40 1.97  43 2.01  45 2.01
 110  0.334  0.259  0.419-  41 1.97  44 2.01  43 2.01
 111  0.667  0.259  0.419-  42 1.97  45 2.01  44 2.01
 112  0.168  0.559  0.443-  43 1.98  47 2.01  46 2.02
 113  0.501  0.559  0.443-  44 1.98  48 2.01  47 2.02
 114  0.834  0.559  0.443-  45 1.98  46 2.01  48 2.02
 115  0.000  0.235  0.464-   2 1.00  45 2.06  43 2.06
 116  0.334  0.235  0.464-   4 1.00  43 2.06  44 2.06
 117  0.667  0.235  0.464-   6 1.00  44 2.06  45 2.06
 118  0.167  0.943  0.440-  43 1.96  46 2.00  47 2.01
 119  0.500  0.943  0.440-  44 1.96  47 2.00  48 2.01
 120  0.833  0.943  0.440-  45 1.96  48 2.00  46 2.01
 121  0.005  0.192  0.123-   7 0.98  16 1.99
 122  0.995  0.808  0.476-   8 0.98  46 1.99
 123  0.338  0.192  0.123-  11 0.98  17 1.99
 124  0.662  0.808  0.476-  12 0.98  48 1.99
 125  0.672  0.192  0.123-   9 0.98  18 1.99
 126  0.328  0.808  0.476-  10 0.98  47 1.99
 
  LATTYP: Found a simple orthorhombic cell.
 ALAT       =     6.4022918039
 B/A-ratio  =     1.4889259653
 C/A-ratio  =     8.8429110168
  
  Lattice vectors:
  
 A1 = (  -0.0000000000,  -6.4022918039,   0.0000000000)
 A2 = (   9.5325385041,   0.0000000000,   0.0000000000)
 A3 = (   0.0000000000,   0.0000000000,  56.6148967251)


Analysis of symmetry for initial positions (statically):
=====================================================================
 Subroutine PRICEL returns following result:
 
  LATTYP: Found a simple orthorhombic cell.
 ALAT       =     3.1775128347
 B/A-ratio  =     2.0148751986
 C/A-ratio  =    17.8173620912
  
  Lattice vectors:
  
 A1 = (   3.1775128347,   0.0000000000,   0.0000000000)
 A2 = (   0.0000000000,   6.4022918039,   0.0000000000)
 A3 = (   0.0000000000,   0.0000000000,  56.6148967251)
 
   3 primitive cells build up your supercell.
 

 Routine SETGRP: Setting up the symmetry group for a 
 simple orthorhombic supercell.


 Subroutine GETGRP returns: Found  2 space group operations
 (whereof  1 operations were pure point group operations)
 out of a pool of  8 trial point group operations.


The static configuration has the point symmetry C_1 .
 The point group associated with its full space group is S_2 .


Analysis of symmetry for dynamics (positions and initial velocities):
=====================================================================
 Subroutine PRICEL returns following result:
 
  LATTYP: Found a simple orthorhombic cell.
 ALAT       =     3.1775128347
 B/A-ratio  =     2.0148751986
 C/A-ratio  =    17.8173620912
  
  Lattice vectors:
  
 A1 = (   3.1775128347,   0.0000000000,   0.0000000000)
 A2 = (   0.0000000000,   6.4022918039,   0.0000000000)
 A3 = (   0.0000000000,   0.0000000000,  56.6148967251)
 
   3 primitive cells build up your supercell.
 

 Routine SETGRP: Setting up the symmetry group for a 
 simple orthorhombic supercell.


 Subroutine GETGRP returns: Found  2 space group operations
 (whereof  1 operations were pure point group operations)
 out of a pool of  8 trial point group operations.


The dynamic configuration has the point symmetry C_1 .
 The point group associated with its full space group is S_2 .


Analysis of constrained symmetry for selective dynamics:
=====================================================================
 Subroutine PRICEL returns following result:
 
  LATTYP: Found a simple orthorhombic cell.
 ALAT       =     3.1775128347
 B/A-ratio  =     2.0148751986
 C/A-ratio  =    17.8173620912
  
  Lattice vectors:
  
 A1 = (   3.1775128347,   0.0000000000,   0.0000000000)
 A2 = (   0.0000000000,   6.4022918039,   0.0000000000)
 A3 = (   0.0000000000,   0.0000000000,  56.6148967251)
 
   3 primitive cells build up your supercell.
 

 Routine SETGRP: Setting up the symmetry group for a 
 simple orthorhombic supercell.


 Subroutine GETGRP returns: Found  2 space group operations
 (whereof  1 operations were pure point group operations)
 out of a pool of  8 trial point group operations.


The constrained configuration has the point symmetry C_1 .
 The point group associated with its full space group is S_2 .


Analysis of structural, dynamic, and magnetic symmetry:
=====================================================================
 Subroutine PRICEL returns following result:
 
  LATTYP: Found a simple orthorhombic cell.
 ALAT       =     3.1775128347
 B/A-ratio  =     2.0148751986
 C/A-ratio  =    17.8173620912
  
  Lattice vectors:
  
 A1 = (   3.1775128347,   0.0000000000,   0.0000000000)
 A2 = (   0.0000000000,   6.4022918039,   0.0000000000)
 A3 = (   0.0000000000,   0.0000000000,  56.6148967251)
 
   3 primitive cells build up your supercell.
 

 Routine SETGRP: Setting up the symmetry group for a 
 simple orthorhombic supercell.


 Subroutine GETGRP returns: Found  2 space group operations
 (whereof  1 operations were pure point group operations)
 out of a pool of  8 trial point group operations.


The overall configuration has the point symmetry C_1 .
 The point group associated with its full space group is S_2 .


 Subroutine INISYM returns: Found  2 space group operations
 (whereof  1 operations are pure point group operations),
 and found     3 'primitive' translations


----------------------------------------------------------------------------------------

                                     Primitive cell                                     

  volume of cell :    1151.7375

  direct lattice vectors                    reciprocal lattice vectors
     3.177512835  0.000000000  0.000000000     0.314711553 -0.000000000  0.000000000
     0.000000000  6.402291804  0.000000000     0.000000000  0.156194068  0.000000000
     0.000000000  0.000000000 56.614896725    -0.000000000 -0.000000000  0.017663196

  length of vectors
     3.177512835  6.402291804 56.614896725     0.314711553  0.156194068  0.017663196

  position of ions in fractional coordinates (direct lattice)
     0.000812687  0.906857681  0.127734733
     0.999187313  0.093142319  0.471613801
     0.742058345  0.230914090  0.116649539
     0.257941655  0.769085910  0.482698995
     0.499168547  0.750281087  0.158379770
     0.998662800  0.248025125  0.157979713
     0.498655100  0.252563394  0.214901143
     0.999293234  0.751347006  0.214858733
     0.500000000  0.750000000  0.271403839
     1.000000000  0.250000000  0.271403839
     0.500000000  0.250000000  0.327946306
     1.000000000  0.750000000  0.327946306
     0.501344900  0.747436606  0.384449002
     0.000706766  0.248652994  0.384491412
     0.500831453  0.249718913  0.440970375
     0.001337200  0.751974875  0.441370432
     0.999444731  0.764517053  0.135219709
     0.500146464  0.056826451  0.159687328
     0.999076901  0.740524987  0.180049875
     0.496805831  0.441256268  0.156301615
     0.998471086  0.260738571  0.193351547
     0.498982187  0.560479137  0.215263202
     0.999256157  0.249152755  0.236530950
     0.499210711  0.943507774  0.214582927
     1.000000000  0.750000000  0.249724761
     0.500000000  0.058293842  0.271403839
     1.000000000  0.750000000  0.293082917
     0.500000000  0.441706158  0.271403839
     1.000000000  0.250000000  0.306267228
     0.500000000  0.558293842  0.327946306
     1.000000000  0.250000000  0.349625384
     0.500000000  0.941706158  0.327946306
     0.000743843  0.750847245  0.362819195
     0.500789289  0.056492226  0.384767218
     0.001528914  0.739261429  0.405998598
     0.501017813  0.439520863  0.384086943
     0.000923099  0.259475013  0.419300270
     0.503194169  0.558743732  0.443048530
     0.000555269  0.235482947  0.464130436
     0.499853536  0.943173549  0.439662817
     0.015319545  0.192069408  0.123344471
     0.984680455  0.807930592  0.476004063

  ion indices of the primitive-cell ions
   primitive index   ion index
                 1           1
                 2           2
                 3           7
                 4           8
                 5          13
                 6          16
                 7          19
                 8          22
                 9          25
                10          28
                11          31
                12          34
                13          39
                14          40
                15          45
                16          46
                17          49
                18          52
                19          55
                20          58
                21          61
                22          64
                23          67
                24          70
                25          73
                26          76
                27          79
                28          82
                29          85
                30          88
                31          91
                32          94
                33          97
                34         100
                35         103
                36         108
                37         109
                38         114
                39         115
                40         118
                41         121
                42         122

----------------------------------------------------------------------------------------

 
 
 KPOINTS: Automatic mesh                          

Automatic generation of k-mesh.
 Grid dimensions read from file:
 generate k-points for:    6    8    1

 Generating k-lattice:

  Cartesian coordinates                     Fractional coordinates (reciprocal lattice)
     0.017483975 -0.000000000  0.000000000     0.166666667  0.000000000  0.000000000
     0.000000000  0.019524258  0.000000000     0.000000000  0.125000000  0.000000000
    -0.000000000 -0.000000000  0.017663196     0.000000000  0.000000000  1.000000000

  Length of vectors
     0.017483975  0.019524258  0.017663196

  Shift w.r.t. Gamma in fractional coordinates (k-lattice)
     0.000000000  0.000000000  0.000000000

 
 Subroutine IBZKPT returns following result:
 ===========================================
 
 Found     26 irreducible k-points:
 
 Following reciprocal coordinates:
            Coordinates               Weight
  0.000000  0.000000  0.000000      1.000000
  0.166667 -0.000000  0.000000      2.000000
  0.333333 -0.000000  0.000000      2.000000
  0.500000 -0.000000  0.000000      1.000000
  0.000000  0.125000  0.000000      2.000000
  0.166667  0.125000  0.000000      2.000000
 -0.166667  0.125000  0.000000      2.000000
  0.333333  0.125000  0.000000      2.000000
 -0.333333  0.125000  0.000000      2.000000
  0.500000  0.125000  0.000000      2.000000
  0.000000  0.250000  0.000000      2.000000
  0.166667  0.250000  0.000000      2.000000
 -0.166667  0.250000  0.000000      2.000000
  0.333333  0.250000  0.000000      2.000000
 -0.333333  0.250000  0.000000      2.000000
  0.500000  0.250000  0.000000      2.000000
  0.000000  0.375000  0.000000      2.000000
  0.166667  0.375000  0.000000      2.000000
 -0.166667  0.375000  0.000000      2.000000
  0.333333  0.375000  0.000000      2.000000
 -0.333333  0.375000  0.000000      2.000000
  0.500000  0.375000  0.000000      2.000000
  0.000000  0.500000  0.000000      1.000000
  0.166667  0.500000  0.000000      2.000000
  0.333333  0.500000  0.000000      2.000000
  0.500000  0.500000  0.000000      1.000000
 
 Following cartesian coordinates:
            Coordinates               Weight
  0.000000  0.000000  0.000000      1.000000
  0.017484 -0.000000  0.000000      2.000000
  0.034968 -0.000000  0.000000      2.000000
  0.052452 -0.000000  0.000000      1.000000
  0.000000  0.019524  0.000000      2.000000
  0.017484  0.019524  0.000000      2.000000
 -0.017484  0.019524  0.000000      2.000000
  0.034968  0.019524  0.000000      2.000000
 -0.034968  0.019524  0.000000      2.000000
  0.052452  0.019524  0.000000      2.000000
  0.000000  0.039049  0.000000      2.000000
  0.017484  0.039049  0.000000      2.000000
 -0.017484  0.039049  0.000000      2.000000
  0.034968  0.039049  0.000000      2.000000
 -0.034968  0.039049  0.000000      2.000000
  0.052452  0.039049  0.000000      2.000000
  0.000000  0.058573  0.000000      2.000000
  0.017484  0.058573  0.000000      2.000000
 -0.017484  0.058573  0.000000      2.000000
  0.034968  0.058573  0.000000      2.000000
 -0.034968  0.058573  0.000000      2.000000
  0.052452  0.058573  0.000000      2.000000
  0.000000  0.078097  0.000000      1.000000
  0.017484  0.078097  0.000000      2.000000
  0.034968  0.078097  0.000000      2.000000
  0.052452  0.078097  0.000000      1.000000
 


--------------------------------------------------------------------------------------------------------




 Dimension of arrays:
   k-points           NKPTS =     26   k-points in BZ     NKDIM =     26   number of bands    NBANDS=    720
   number of dos      NEDOS =   6001   number of ions     NIONS =    126
   non local maximal  LDIM  =      8   non local SUM 2l+1 LMDIM =     26
   total plane-waves  NPLWV = ******
   max r-space proj   IRMAX =  27620   max aug-charges    IRDMAX= 386720
   dimension x,y,z NGX =   108 NGY =   72 NGZ =  640
   dimension x,y,z NGXF=   216 NGYF=  144 NGZF= 1280
   support grid    NGXF=   432 NGYF=  288 NGZF= 2560
   ions per type =              12  36  78
   NGX,Y,Z   is equivalent  to a cutoff of  18.84, 18.70, 18.79 a.u.
   NGXF,Y,Z  is equivalent  to a cutoff of  37.67, 37.39, 37.59 a.u.

 Based on PREC, I would recommend the following setting:
   dimension x,y,z NGX =    70 NGY =   48 NGZ =  420

 SYSTEM =  IrO2-110	                               
 POSCAR =  Ir36 H12 O78                            

 Startparameter for this run:
   NWRITE =      1    write-flag & timer
   PREC   = accura    normal or accurate (medium, high low for compatibility)
   ISTART =      0    job   : 0-new  1-cont  2-samecut
   ICHARG =      2    charge: 1-file 2-atom 10-const
   ISPIN  =      2    spin polarized calculation?
   LNONCOLLINEAR =      F non collinear calculations
   LSORBIT =      F    spin-orbit coupling
   INIWAV =      1    electr: 0-lowe 1-rand  2-diag
   LASPH  =      T    aspherical Exc in radial PAW
 Electronic Relaxation 1
   ENCUT  =  500.0 eV  36.75 Ry    6.06 a.u.  17.38 11.67103.22*2*pi/ulx,y,z
   ENINI  =  500.0     initial cutoff
   ENAUG  = 1139.6 eV  augmentation charge cutoff
   NELM   =    300;   NELMIN=  6; NELMDL= -8     # of ELM steps 
   EDIFF  = 0.1E-04   stopping-criterion for ELM
   LREAL  =      T    real-space projection
   NLSPLINE    = F    spline interpolate recip. space projectors
   LCOMPAT=      F    compatible to vasp.4.4
   GGA_COMPAT  = T    GGA compatible to vasp.4.4-vasp.4.6
   LMAXPAW     = -100 max onsite density
   LMAXMIX     =    2 max onsite mixed and CHGCAR
   VOSKOWN=      0    Vosko Wilk Nusair interpolation
   ROPT   =   -0.00025  -0.00025  -0.00025
 Ionic relaxation
   EDIFFG = -.3E-01   stopping-criterion for IOM
   NSW    =      0    number of steps for IOM
   NBLOCK =      1;   KBLOCK =      1    inner block; outer block 
   IBRION =     -1    ionic relax: 0-MD 1-quasi-New 2-CG
   NFREE  =      1    steps in history (QN), initial steepest desc. (CG)
   ISIF   =      0    stress and relaxation
   IWAVPR =     10    prediction:  0-non 1-charg 2-wave 3-comb
   ISYM   =      2    0-nonsym 1-usesym 2-fastsym
   LCORR  =      T    Harris-Foulkes like correction to forces

   POTIM  = 0.5000    time-step for ionic-motion
   TEIN   =    0.0    initial temperature
   TEBEG  =    0.0;   TEEND  =   0.0 temperature during run
   SMASS  =  -3.00    Nose mass-parameter (am)
   estimated Nose-frequenzy (Omega)   =  0.10E-29 period in steps = 0.13E+47 mass=  -0.208E-26a.u.
   SCALEE = 1.0000    scale energy and forces
   NPACO  =    256;   APACO  = 10.0  distance and # of slots for P.C.
   PSTRESS=    0.0 pullay stress

  Mass of Ions in am
   POMASS =   1.00192.22 16.00
  Ionic Valenz
   ZVAL   =   1.00 17.00  6.00
  Atomic Wigner-Seitz radii
   RWIGS  =  -1.00 -1.00 -1.00
  virtual crystal weights 
   VCA    =   1.00  1.00  1.00
   NELECT =    1092.0000    total number of electrons
   NUPDOWN=      -1.0000    fix difference up-down

 DOS related values:
   EMIN   =  10.00;   EMAX   =-10.00  energy-range for DOS
   EFERMI =   0.00
   ISMEAR =     0;   SIGMA  =   0.05  broadening in eV -4-tet -1-fermi 0-gaus

 Electronic relaxation 2 (details)
   IALGO  =     38    algorithm
   LDIAG  =      T    sub-space diagonalisation (order eigenvalues)
   LSUBROT=      F    optimize rotation matrix (better conditioning)
   TURBO    =      0    0=normal 1=particle mesh
   IRESTART =      0    0=no restart 2=restart with 2 vectors
   NREBOOT  =      0    no. of reboots
   NMIN     =      0    reboot dimension
   EREF     =   0.00    reference energy to select bands
   IMIX   =      4    mixing-type and parameters
     AMIX     =   0.40;   BMIX     =  1.00
     AMIX_MAG =   1.60;   BMIX_MAG =  1.00
     AMIN     =   0.01
     WC   =   100.;   INIMIX=   1;  MIXPRE=   1;  MAXMIX= -45

 Intra band minimization:
   WEIMIN = 0.0000     energy-eigenvalue tresh-hold
   EBREAK =  0.35E-08  absolut break condition
   DEPER  =   0.30     relativ break condition  

   TIME   =   0.40     timestep for ELM

  volume/ion in A,a.u.               =      27.42       185.05
  Fermi-wavevector in a.u.,A,eV,Ry     =   1.115126  2.107283 16.918941  1.243507
  Thomas-Fermi vector in A             =   2.251728
 
 Write flags
   LWAVE        =      F    write WAVECAR
   LDOWNSAMPLE  =      F    k-point downsampling of WAVECAR
   LCHARG       =      T    write CHGCAR
   LVTOT        =      F    write LOCPOT, total local potential
   LVHAR        =      F    write LOCPOT, Hartree potential only
   LELF         =      F    write electronic localiz. function (ELF)
   LORBIT       =     10    0 simple, 1 ext, 2 COOP (PROOUT), +10 PAW based schemes


 Dipole corrections
   LMONO  =      F    monopole corrections only (constant potential shift)
   LDIPOL =      F    correct potential (dipole corrections)
   IDIPOL =      0    1-x, 2-y, 3-z, 4-all directions 
   EPSILON=  1.0000000 bulk dielectric constant

 Exchange correlation treatment:
   GGA     =    --    GGA type
   LEXCH   =     8    internal setting for exchange type
   LIBXC   =     F    Libxc                    
   VOSKOWN =     0    Vosko Wilk Nusair interpolation
   LHFCALC =     F    Hartree Fock is set to
   LHFONE  =     F    Hartree Fock one center treatment
   AEXX    =    0.0000 exact exchange contribution

 Linear response parameters
   LEPSILON=     F    determine dielectric tensor
   LRPA    =     F    only Hartree local field effects (RPA)
   LNABLA  =     F    use nabla operator in PAW spheres
   LVEL    =     F    velocity operator in full k-point grid
   CSHIFT  =0.1000    complex shift for real part using Kramers Kronig
   OMEGAMAX=  -1.0    maximum frequency
   DEG_THRESHOLD= 0.2000000E-02 threshold for treating states as degnerate
   RTIME   =   -0.100 relaxation time in fs
  (WPLASMAI=    0.000 imaginary part of plasma frequency in eV, 0.658/RTIME)
   DFIELD  = 0.0000000 0.0000000 0.0000000 field for delta impulse in time
 
  Optional k-point grid parameters
   LKPOINTS_OPT  =     F    use optional k-point grid
   KPOINTS_OPT_MODE=     1    mode for optional k-point grid
 
 Orbital magnetization related:
   ORBITALMAG=     F  switch on orbital magnetization
   LCHIMAG   =     F  perturbation theory with respect to B field
   DQ        =  0.001000  dq finite difference perturbation B field
   LLRAUG    =     F  two centre corrections for induced B field



--------------------------------------------------------------------------------------------------------


 Static calculation
 charge density and potential will be updated during run
 spin polarized calculation
 Variant of blocked Davidson
 Davidson routine will perform the subspace rotation
 perform sub-space diagonalisation
    after iterative eigenvector-optimisation
 modified Broyden-mixing scheme, WC =      100.0
 initial mixing is a Kerker type mixing with AMIX =  0.4000 and BMIX =      1.0000
 Hartree-type preconditioning will be used
 using additional bands          174
 real space projection scheme for non local part
 use partial core corrections
 calculate Harris-corrections to forces 
   (improved forces if not selfconsistent)
 use gradient corrections 
 use of overlap-Matrix (Vanderbilt PP)
 Gauss-broadening in eV      SIGMA  =   0.05


--------------------------------------------------------------------------------------------------------


  energy-cutoff  :      500.00
  volume of cell :     3455.21
      direct lattice vectors                 reciprocal lattice vectors
     9.532538504  0.000000000  0.000000000     0.104903851 -0.000000000  0.000000000
     0.000000000  6.402291804  0.000000000     0.000000000  0.156194068  0.000000000
     0.000000000  0.000000000 56.614896725    -0.000000000 -0.000000000  0.017663196

  length of vectors
     9.532538504  6.402291804 56.614896725     0.104903851  0.156194068  0.017663196


 
 k-points in units of 2pi/SCALE and weight: Automatic mesh                          
   0.00000000  0.00000000  0.00000000       0.021
   0.01748398 -0.00000000  0.00000000       0.042
   0.03496795 -0.00000000  0.00000000       0.042
   0.05245193 -0.00000000  0.00000000       0.021
   0.00000000  0.01952426  0.00000000       0.042
   0.01748398  0.01952426  0.00000000       0.042
  -0.01748398  0.01952426  0.00000000       0.042
   0.03496795  0.01952426  0.00000000       0.042
  -0.03496795  0.01952426  0.00000000       0.042
   0.05245193  0.01952426  0.00000000       0.042
   0.00000000  0.03904852  0.00000000       0.042
   0.01748398  0.03904852  0.00000000       0.042
  -0.01748398  0.03904852  0.00000000       0.042
   0.03496795  0.03904852  0.00000000       0.042
  -0.03496795  0.03904852  0.00000000       0.042
   0.05245193  0.03904852  0.00000000       0.042
   0.00000000  0.05857278  0.00000000       0.042
   0.01748398  0.05857278  0.00000000       0.042
  -0.01748398  0.05857278  0.00000000       0.042
   0.03496795  0.05857278  0.00000000       0.042
  -0.03496795  0.05857278  0.00000000       0.042
   0.05245193  0.05857278  0.00000000       0.042
   0.00000000  0.07809703  0.00000000       0.021
   0.01748398  0.07809703  0.00000000       0.042
   0.03496795  0.07809703  0.00000000       0.042
   0.05245193  0.07809703  0.00000000       0.021
 
 k-points in reciprocal lattice and weights: Automatic mesh                          
   0.00000000  0.00000000  0.00000000       0.021
   0.16666667 -0.00000000  0.00000000       0.042
   0.33333333 -0.00000000  0.00000000       0.042
   0.50000000 -0.00000000  0.00000000       0.021
   0.00000000  0.12500000  0.00000000       0.042
   0.16666667  0.12500000  0.00000000       0.042
  -0.16666667  0.12500000  0.00000000       0.042
   0.33333333  0.12500000  0.00000000       0.042
  -0.33333333  0.12500000  0.00000000       0.042
   0.50000000  0.12500000  0.00000000       0.042
   0.00000000  0.25000000  0.00000000       0.042
   0.16666667  0.25000000  0.00000000       0.042
  -0.16666667  0.25000000  0.00000000       0.042
   0.33333333  0.25000000  0.00000000       0.042
  -0.33333333  0.25000000  0.00000000       0.042
   0.50000000  0.25000000  0.00000000       0.042
   0.00000000  0.37500000  0.00000000       0.042
   0.16666667  0.37500000  0.00000000       0.042
  -0.16666667  0.37500000  0.00000000       0.042
   0.33333333  0.37500000  0.00000000       0.042
  -0.33333333  0.37500000  0.00000000       0.042
   0.50000000  0.37500000  0.00000000       0.042
   0.00000000  0.50000000  0.00000000       0.021
   0.16666667  0.50000000  0.00000000       0.042
   0.33333333  0.50000000  0.00000000       0.042
   0.50000000  0.50000000  0.00000000       0.021
 
 position of ions in fractional coordinates (direct lattice) 
   0.00027090  0.90685768  0.12773473
   0.99972910  0.09314232  0.47161380
   0.66693756  0.90685768  0.12773473
   0.33306244  0.09314232  0.47161380
   0.33360423  0.90685768  0.12773473
   0.66639577  0.09314232  0.47161380
   0.91401945  0.23091409  0.11664954
   0.08598055  0.76908591  0.48269899
   0.58068611  0.23091409  0.11664954
   0.41931389  0.76908591  0.48269899
   0.24735278  0.23091409  0.11664954
   0.75264722  0.76908591  0.48269899
   0.16638952  0.75028109  0.15837977
   0.49972285  0.75028109  0.15837977
   0.83305618  0.75028109  0.15837977
   0.99955427  0.24802513  0.15797971
   0.33288760  0.24802513  0.15797971
   0.66622093  0.24802513  0.15797971
   0.16621837  0.25256339  0.21490114
   0.49955170  0.25256339  0.21490114
   0.83288503  0.25256339  0.21490114
   0.99976441  0.75134701  0.21485873
   0.33309774  0.75134701  0.21485873
   0.66643108  0.75134701  0.21485873
   0.16666667  0.75000000  0.27140384
   0.50000000  0.75000000  0.27140384
   0.83333333  0.75000000  0.27140384
   0.00000000  0.25000000  0.27140384
   0.33333333  0.25000000  0.27140384
   0.66666667  0.25000000  0.27140384
   0.16666667  0.25000000  0.32794631
   0.50000000  0.25000000  0.32794631
   0.83333333  0.25000000  0.32794631
   0.00000000  0.75000000  0.32794631
   0.33333333  0.75000000  0.32794631
   0.66666667  0.75000000  0.32794631
   0.16711497  0.74743661  0.38444900
   0.50044830  0.74743661  0.38444900
   0.83378163  0.74743661  0.38444900
   0.00023559  0.24865299  0.38449141
   0.33356892  0.24865299  0.38449141
   0.66690226  0.24865299  0.38449141
   0.16694382  0.24971891  0.44097037
   0.50027715  0.24971891  0.44097037
   0.83361048  0.24971891  0.44097037
   0.00044573  0.75197487  0.44137043
   0.33377907  0.75197487  0.44137043
   0.66711240  0.75197487  0.44137043
   0.99981491  0.76451705  0.13521971
   0.33314824  0.76451705  0.13521971
   0.66648158  0.76451705  0.13521971
   0.16671549  0.05682645  0.15968733
   0.50004882  0.05682645  0.15968733
   0.83338215  0.05682645  0.15968733
   0.99969230  0.74052499  0.18004988
   0.33302563  0.74052499  0.18004988
   0.66635897  0.74052499  0.18004988
   0.16560194  0.44125627  0.15630161
   0.49893528  0.44125627  0.15630161
   0.83226861  0.44125627  0.15630161
   0.99949036  0.26073857  0.19335155
   0.33282370  0.26073857  0.19335155
   0.66615703  0.26073857  0.19335155
   0.16632740  0.56047914  0.21526320
   0.49966073  0.56047914  0.21526320
   0.83299406  0.56047914  0.21526320
   0.99975205  0.24915276  0.23653095
   0.33308539  0.24915276  0.23653095
   0.66641872  0.24915276  0.23653095
   0.16640357  0.94350777  0.21458293
   0.49973690  0.94350777  0.21458293
   0.83307024  0.94350777  0.21458293
   0.00000000  0.75000000  0.24972476
   0.33333333  0.75000000  0.24972476
   0.66666667  0.75000000  0.24972476
   0.16666667  0.05829384  0.27140384
   0.50000000  0.05829384  0.27140384
   0.83333333  0.05829384  0.27140384
   0.00000000  0.75000000  0.29308292
   0.33333333  0.75000000  0.29308292
   0.66666667  0.75000000  0.29308292
   0.16666667  0.44170616  0.27140384
   0.50000000  0.44170616  0.27140384
   0.83333333  0.44170616  0.27140384
   0.00000000  0.25000000  0.30626723
   0.33333333  0.25000000  0.30626723
   0.66666667  0.25000000  0.30626723
   0.16666667  0.55829384  0.32794631
   0.50000000  0.55829384  0.32794631
   0.83333333  0.55829384  0.32794631
   0.00000000  0.25000000  0.34962538
   0.33333333  0.25000000  0.34962538
   0.66666667  0.25000000  0.34962538
   0.16666667  0.94170616  0.32794631
   0.50000000  0.94170616  0.32794631
   0.83333333  0.94170616  0.32794631
   0.00024795  0.75084724  0.36281920
   0.33358128  0.75084724  0.36281920
   0.66691461  0.75084724  0.36281920
   0.16692976  0.05649223  0.38476722
   0.50026310  0.05649223  0.38476722
   0.83359643  0.05649223  0.38476722
   0.00050964  0.73926143  0.40599860
   0.33384297  0.73926143  0.40599860
   0.66717630  0.73926143  0.40599860
   0.16700594  0.43952086  0.38408694
   0.50033927  0.43952086  0.38408694
   0.83367260  0.43952086  0.38408694
   0.00030770  0.25947501  0.41930027
   0.33364103  0.25947501  0.41930027
   0.66697437  0.25947501  0.41930027
   0.16773139  0.55874373  0.44304853
   0.50106472  0.55874373  0.44304853
   0.83439806  0.55874373  0.44304853
   0.00018509  0.23548295  0.46413044
   0.33351842  0.23548295  0.46413044
   0.66685176  0.23548295  0.46413044
   0.16661785  0.94317355  0.43966282
   0.49995118  0.94317355  0.43966282
   0.83328451  0.94317355  0.43966282
   0.00510652  0.19206941  0.12334447
   0.99489348  0.80793059  0.47600406
   0.33843985  0.19206941  0.12334447
   0.66156015  0.80793059  0.47600406
   0.67177318  0.19206941  0.12334447
   0.32822682  0.80793059  0.47600406
 
 position of ions in cartesian coordinates  (Angst):
   0.00258232  5.80596750  7.23168872
   9.52995618  0.59632431 26.70036664
   6.35760799  5.80596750  7.23168872
   3.17493051  0.59632431 26.70036664
   3.18009516  5.80596750  7.23168872
   6.35244335  0.59632431 26.70036664
   8.71292558  1.47837939  6.60410163
   0.81961292  4.92391242 27.32795374
   5.53541275  1.47837939  6.60410163
   3.99712576  4.92391242 27.32795374
   2.35789991  1.47837939  6.60410163
   7.17463859  4.92391242 27.32795374
   1.58611447  4.80351845  8.96665434
   4.76362730  4.80351845  8.96665434
   7.94114013  4.80351845  8.96665434
   9.52828953  1.58792923  8.94400513
   3.17326386  1.58792923  8.94400513
   6.35077670  1.58792923  8.94400513
   1.58448298  1.61698455 12.16660600
   4.76199582  1.61698455 12.16660600
   7.93950865  1.61698455 12.16660600
   9.53029274  4.81034278 12.16420497
   3.17526708  4.81034278 12.16420497
   6.35277991  4.81034278 12.16420497
   1.58875642  4.80171885 15.36550033
   4.76626925  4.80171885 15.36550033
   7.94378209  4.80171885 15.36550033
   0.00000000  1.60057295 15.36550033
   3.17751283  1.60057295 15.36550033
   6.35502567  1.60057295 15.36550033
   1.58875642  1.60057295 18.56664623
   4.76626925  1.60057295 18.56664623
   7.94378209  1.60057295 18.56664623
   0.00000000  4.80171885 18.56664623
   3.17751283  4.80171885 18.56664623
   6.35502567  4.80171885 18.56664623
   1.59302985  4.78530726 21.76554056
   4.77054269  4.78530726 21.76554056
   7.94805552  4.78530726 21.76554056
   0.00224576  1.59194903 21.76794159
   3.17975859  1.59194903 21.76794159
   6.35727143  1.59194903 21.76794159
   1.59139837  1.59877335 24.96549222
   4.76891120  1.59877335 24.96549222
   7.94642404  1.59877335 24.96549222
   0.00424897  4.81436258 24.98814143
   3.18176180  4.81436258 24.98814143
   6.35927464  4.81436258 24.98814143
   9.53077413  4.89466126  7.65544987
   3.17574846  4.89466126  7.65544987
   6.35326129  4.89466126  7.65544987
   1.58922181  0.36381952  9.04068160
   4.76673464  0.36381952  9.04068160
   7.94424748  0.36381952  9.04068160
   9.52960534  4.74105706 10.19350510
   3.17457967  4.74105706 10.19350510
   6.35209251  4.74105706 10.19350510
   1.57860690  2.82505139  8.84899978
   4.75611974  2.82505139  8.84899978
   7.93363257  2.82505139  8.84899978
   9.52768036  1.66932441 10.94657785
   3.17265469  1.66932441 10.94657785
   6.35016753  1.66932441 10.94657785
   1.58552230  3.58835098 12.18710396
   4.76303514  3.58835098 12.18710396
   7.94054797  3.58835098 12.18710396
   9.53017493  1.59514864 13.39117528
   3.17514927  1.59514864 13.39117528
   6.35266210  1.59514864 13.39117528
   1.58624844  6.04061209 12.14859027
   4.76376128  6.04061209 12.14859027
   7.94127411  6.04061209 12.14859027
   0.00000000  4.80171885 14.13814156
   3.17751283  4.80171885 14.13814156
   6.35502567  4.80171885 14.13814156
   1.58875642  0.37321418 15.36550033
   4.76626925  0.37321418 15.36550033
   7.94378209  0.37321418 15.36550033
   0.00000000  4.80171885 16.59285910
   3.17751283  4.80171885 16.59285910
   6.35502567  4.80171885 16.59285910
   1.58875642  2.82793172 15.36550033
   4.76626925  2.82793172 15.36550033
   7.94378209  2.82793172 15.36550033
   0.00000000  1.60057295 17.33928746
   3.17751283  1.60057295 17.33928746
   6.35502567  1.60057295 17.33928746
   1.58875642  3.57436009 18.56664623
   4.76626925  3.57436009 18.56664623
   7.94378209  3.57436009 18.56664623
   0.00000000  1.60057295 19.79400500
   3.17751283  1.60057295 19.79400500
   6.35502567  1.60057295 19.79400500
   1.58875642  6.02907762 18.56664623
   4.76626925  6.02907762 18.56664623
   7.94378209  6.02907762 18.56664623
   0.00236357  4.80714316 20.54097128
   3.17987640  4.80714316 20.54097128
   6.35738924  4.80714316 20.54097128
   1.59126439  0.36167971 21.78355629
   4.76877723  0.36167971 21.78355629
   7.94629006  0.36167971 21.78355629
   0.00485814  4.73296739 22.98556871
   3.18237098  4.73296739 22.98556871
   6.35988381  4.73296739 22.98556871
   1.59199053  2.81394082 21.74504260
   4.76950336  2.81394082 21.74504260
   7.94701620  2.81394082 21.74504260
   0.00293316  1.66123475 23.73864146
   3.18044599  1.66123475 23.73864146
   6.35795883  1.66123475 23.73864146
   1.59890593  3.57724041 25.08314678
   4.77641877  3.57724041 25.08314678
   7.95393160  3.57724041 25.08314678
   0.00176438  1.50763054 26.27669669
   3.17927721  1.50763054 26.27669669
   6.35679005  1.50763054 26.27669669
   1.58829103  6.03847228 24.89146496
   4.76580386  6.03847228 24.89146496
   7.94331670  6.03847228 24.89146496
   0.04867805  1.22968439  6.98313447
   9.48386045  5.17260741 26.94892089
   3.22619089  1.22968439  6.98313447
   6.30634762  5.17260741 26.94892089
   6.40370372  1.22968439  6.98313447
   3.12883478  5.17260741 26.94892089
 


--------------------------------------------------------------------------------------------------------


 k-point   1 :   0.0000 0.0000 0.0000  plane waves:   87751
 k-point   2 :   0.1667-0.0000 0.0000  plane waves:   87701
 k-point   3 :   0.3333-0.0000 0.0000  plane waves:   87761
 k-point   4 :   0.5000-0.0000 0.0000  plane waves:   87898
 k-point   5 :   0.0000 0.1250 0.0000  plane waves:   87793
 k-point   6 :   0.1667 0.1250 0.0000  plane waves:   87757
 k-point   7 :  -0.1667 0.1250 0.0000  plane waves:   87757
 k-point   8 :   0.3333 0.1250 0.0000  plane waves:   87759
 k-point   9 :  -0.3333 0.1250 0.0000  plane waves:   87759
 k-point  10 :   0.5000 0.1250 0.0000  plane waves:   87746
 k-point  11 :   0.0000 0.2500 0.0000  plane waves:   87795
 k-point  12 :   0.1667 0.2500 0.0000  plane waves:   87724
 k-point  13 :  -0.1667 0.2500 0.0000  plane waves:   87724
 k-point  14 :   0.3333 0.2500 0.0000  plane waves:   87673
 k-point  15 :  -0.3333 0.2500 0.0000  plane waves:   87673
 k-point  16 :   0.5000 0.2500 0.0000  plane waves:   87658
 k-point  17 :   0.0000 0.3750 0.0000  plane waves:   87722
 k-point  18 :   0.1667 0.3750 0.0000  plane waves:   87696
 k-point  19 :  -0.1667 0.3750 0.0000  plane waves:   87696
 k-point  20 :   0.3333 0.3750 0.0000  plane waves:   87665
 k-point  21 :  -0.3333 0.3750 0.0000  plane waves:   87665
 k-point  22 :   0.5000 0.3750 0.0000  plane waves:   87624
 k-point  23 :   0.0000 0.5000 0.0000  plane waves:   87712
 k-point  24 :   0.1667 0.5000 0.0000  plane waves:   87774
 k-point  25 :   0.3333 0.5000 0.0000  plane waves:   87648
 k-point  26 :   0.5000 0.5000 0.0000  plane waves:   87676

 maximum and minimum number of plane-waves per node :     17658    17472

 maximum number of plane-waves:     87898
 maximum index in each direction: 
   IXMAX=   17   IYMAX=   11   IZMAX=  103
   IXMIN=  -17   IYMIN=  -12   IZMIN= -103


 real space projection operators:
  total allocation   :     541981.48 KBytes
  max/ min on nodes  :     110125.73     105812.07


 parallel 3D FFT for wavefunctions:
    minimum data exchange during FFTs selected (reduces bandwidth)
 parallel 3D FFT for charge:
    minimum data exchange during FFTs selected (reduces bandwidth)


 total amount of memory used by VASP MPI-rank0  1142940. kBytes
=======================================================================

   base      :      30000. kBytes
   nonlr-proj:     194856. kBytes
   fftplans  :     107811. kBytes
   grid      :     129874. kBytes
   one-center:       1687. kBytes
   wavefun   :     678712. kBytes
 
     INWAV:  cpu time      0.0000: real time      0.0002
 Broyden mixing: mesh for mixing (old mesh)
   NGX = 35   NGY = 23   NGZ =207
  (NGX  =216   NGY  =144   NGZ  =***)
  gives a total of 166635 points

 initial charge density was supplied:
 charge density of overlapping atoms calculated
 number of electron    1092.0000000 magnetization     126.0000000
 keeping initial charge density in first step


--------------------------------------------------------------------------------------------------------


 Maximum index for non-local projection operator         5805
 Maximum index for augmentation-charges         9385 (set IRDMAX)


--------------------------------------------------------------------------------------------------------


 First call to EWALD:  gamma=   0.117
 Maximum number of real-space cells 4x 6x 1
 Maximum number of reciprocal cells 2x 1x 9

    FEWALD:  cpu time      0.0088: real time      0.0090


--------------------------------------- Iteration      1(   1)  ---------------------------------------


    POTLOK:  cpu time      1.0529: real time      1.0986
    SETDIJ:  cpu time      2.6545: real time      2.6618
     EDDAV:  cpu time   1232.8100: real time   1237.4393
       DOS:  cpu time      0.0204: real time      0.0206
    --------------------------------------------
      LOOP:  cpu time   1236.5379: real time   1241.2203

 eigenvalue-minimisations  : 89664
 total energy-change (2. order) : 0.1419850E+05  (-0.6179072E+05)
 number of electron    1092.0000000 magnetization     126.0000000
 augmentation part     1092.0000000 magnetization     126.0000000

 Free energy of the ion-electron system (eV)
  ---------------------------------------------------
  alpha Z        PSCENC =      2267.49158726
  Ewald energy   TEWEN  =   3383898.94607781
  -Hartree energ DENC   =  -3509022.78228572
  -exchange      EXHF   =         0.00000000
  -V(xc)+E(xc)   XCENC  =      5093.90927508
  PAW double counting   =    114634.50682011  -112156.22962523
  entropy T*S    EENTRO =        -0.05631517
  eigenvalues    EBANDS =     -8205.13694287
  atomic energy  EATOM  =    137687.85523574
  Solvation  Ecorr_sol  =         0.00000000
  ---------------------------------------------------
  free energy    TOTEN  =     14198.50382700 eV

  energy without entropy =    14198.56014217  energy(sigma->0) =    14198.53198459


--------------------------------------------------------------------------------------------------------




--------------------------------------- Iteration      1(   2)  ---------------------------------------


     EDDAV:  cpu time   1377.7557: real time   1381.0654
       DOS:  cpu time      0.0195: real time      0.0195
    --------------------------------------------
      LOOP:  cpu time   1377.7752: real time   1381.0849

 eigenvalue-minimisations  :102896
 total energy-change (2. order) :-0.1380375E+05  (-0.1315050E+05)
 number of electron    1092.0000000 magnetization     126.0000000
 augmentation part     1092.0000000 magnetization     126.0000000

 Free energy of the ion-electron system (eV)
  ---------------------------------------------------
  alpha Z        PSCENC =      2267.49158726
  Ewald energy   TEWEN  =   3383898.94607781
  -Hartree energ DENC   =  -3509022.78228572
  -exchange      EXHF   =         0.00000000
  -V(xc)+E(xc)   XCENC  =      5093.90927508
  PAW double counting   =    114634.50682011  -112156.22962523
  entropy T*S    EENTRO =        -0.05269788
  eigenvalues    EBANDS =    -22008.89361172
  atomic energy  EATOM  =    137687.85523574
  Solvation  Ecorr_sol  =         0.00000000
  ---------------------------------------------------
  free energy    TOTEN  =       394.75077545 eV

  energy without entropy =      394.80347333  energy(sigma->0) =      394.77712439


--------------------------------------------------------------------------------------------------------




--------------------------------------- Iteration      1(   3)  ---------------------------------------


     EDDAV:  cpu time   1242.7238: real time   1248.9977
       DOS:  cpu time      0.0156: real time      0.0541
    --------------------------------------------
      LOOP:  cpu time   1242.7408: real time   1249.0531

 eigenvalue-minimisations  : 90320
 total energy-change (2. order) :-0.1405940E+04  (-0.1372428E+04)
 number of electron    1092.0000000 magnetization     126.0000000
 augmentation part     1092.0000000 magnetization     126.0000000

 Free energy of the ion-electron system (eV)
  ---------------------------------------------------
  alpha Z        PSCENC =      2267.49158726
  Ewald energy   TEWEN  =   3383898.94607781
  -Hartree energ DENC   =  -3509022.78228572
  -exchange      EXHF   =         0.00000000
  -V(xc)+E(xc)   XCENC  =      5093.90927508
  PAW double counting   =    114634.50682011  -112156.22962523
  entropy T*S    EENTRO =        -0.07169807
  eigenvalues    EBANDS =    -23414.81422765
  atomic energy  EATOM  =    137687.85523574
  Solvation  Ecorr_sol  =         0.00000000
  ---------------------------------------------------
  free energy    TOTEN  =     -1011.18884067 eV

  energy without entropy =    -1011.11714260  energy(sigma->0) =    -1011.15299164


--------------------------------------------------------------------------------------------------------




--------------------------------------- Iteration      1(   4)  ---------------------------------------


     EDDAV:  cpu time   1398.8400: real time   1402.2151
       DOS:  cpu time      0.0165: real time      0.0165
    --------------------------------------------
      LOOP:  cpu time   1398.8552: real time   1402.2303

 eigenvalue-minimisations  :104992
 total energy-change (2. order) :-0.5753208E+02  (-0.5609474E+02)
 number of electron    1092.0000000 magnetization     126.0000000
 augmentation part     1092.0000000 magnetization     126.0000000

 Free energy of the ion-electron system (eV)
  ---------------------------------------------------
  alpha Z        PSCENC =      2267.49158726
  Ewald energy   TEWEN  =   3383898.94607781
  -Hartree energ DENC   =  -3509022.78228572
  -exchange      EXHF   =         0.00000000
  -V(xc)+E(xc)   XCENC  =      5093.90927508
  PAW double counting   =    114634.50682011  -112156.22962523
  entropy T*S    EENTRO =        -0.07001444
  eigenvalues    EBANDS =    -23472.34799420
  atomic energy  EATOM  =    137687.85523574
  Solvation  Ecorr_sol  =         0.00000000
  ---------------------------------------------------
  free energy    TOTEN  =     -1068.72092359 eV

  energy without entropy =    -1068.65090915  energy(sigma->0) =    -1068.68591637


--------------------------------------------------------------------------------------------------------




--------------------------------------- Iteration      1(   5)  ---------------------------------------


     EDDAV:  cpu time   1316.5160: real time   1319.6814
       DOS:  cpu time      0.0169: real time      0.0169
    --------------------------------------------
      LOOP:  cpu time   1316.5329: real time   1319.6983

 eigenvalue-minimisations  : 97360
 total energy-change (2. order) :-0.1821468E+01  (-0.1783430E+01)
 number of electron    1092.0000000 magnetization     126.0000000
 augmentation part     1092.0000000 magnetization     126.0000000

 Free energy of the ion-electron system (eV)
  ---------------------------------------------------
  alpha Z        PSCENC =      2267.49158726
  Ewald energy   TEWEN  =   3383898.94607781
  -Hartree energ DENC   =  -3509022.78228572
  -exchange      EXHF   =         0.00000000
  -V(xc)+E(xc)   XCENC  =      5093.90927508
  PAW double counting   =    114634.50682011  -112156.22962523
  entropy T*S    EENTRO =        -0.06900058
  eigenvalues    EBANDS =    -23474.17047573
  atomic energy  EATOM  =    137687.85523574
  Solvation  Ecorr_sol  =         0.00000000
  ---------------------------------------------------
  free energy    TOTEN  =     -1070.54239127 eV

  energy without entropy =    -1070.47339069  energy(sigma->0) =    -1070.50789098


--------------------------------------------------------------------------------------------------------




--------------------------------------- Iteration      1(   6)  ---------------------------------------


     EDDAV:  cpu time   1393.4853: real time   1398.3556
       DOS:  cpu time      0.0192: real time      0.0258
    --------------------------------------------
      LOOP:  cpu time   1393.5045: real time   1398.3814

 eigenvalue-minimisations  :104320
 total energy-change (2. order) :-0.8289347E-01  (-0.8225100E-01)
 number of electron    1092.0000000 magnetization     126.0000000
 augmentation part     1092.0000000 magnetization     126.0000000

 Free energy of the ion-electron system (eV)
  ---------------------------------------------------
  alpha Z        PSCENC =      2267.49158726
  Ewald energy   TEWEN  =   3383898.94607781
  -Hartree energ DENC   =  -3509022.78228572
  -exchange      EXHF   =         0.00000000
  -V(xc)+E(xc)   XCENC  =      5093.90927508
  PAW double counting   =    114634.50682011  -112156.22962523
  entropy T*S    EENTRO =        -0.06886868
  eigenvalues    EBANDS =    -23474.25350111
  atomic energy  EATOM  =    137687.85523574
  Solvation  Ecorr_sol  =         0.00000000
  ---------------------------------------------------
  free energy    TOTEN  =     -1070.62528474 eV

  energy without entropy =    -1070.55641606  energy(sigma->0) =    -1070.59085040


--------------------------------------------------------------------------------------------------------




--------------------------------------- Iteration      1(   7)  ---------------------------------------


     EDDAV:  cpu time   1307.3969: real time   1310.5456
       DOS:  cpu time      0.0172: real time      0.0172
    --------------------------------------------
      LOOP:  cpu time   1307.4139: real time   1310.5628

 eigenvalue-minimisations  : 96432
 total energy-change (2. order) :-0.4064603E-02  (-0.4053758E-02)
 number of electron    1092.0000000 magnetization     126.0000000
 augmentation part     1092.0000000 magnetization     126.0000000

 Free energy of the ion-electron system (eV)
  ---------------------------------------------------
  alpha Z        PSCENC =      2267.49158726
  Ewald energy   TEWEN  =   3383898.94607781
  -Hartree energ DENC   =  -3509022.78228572
  -exchange      EXHF   =         0.00000000
  -V(xc)+E(xc)   XCENC  =      5093.90927508
  PAW double counting   =    114634.50682011  -112156.22962523
  entropy T*S    EENTRO =        -0.06885599
  eigenvalues    EBANDS =    -23474.25757840
  atomic energy  EATOM  =    137687.85523574
  Solvation  Ecorr_sol  =         0.00000000
  ---------------------------------------------------
  free energy    TOTEN  =     -1070.62934934 eV

  energy without entropy =    -1070.56049335  energy(sigma->0) =    -1070.59492135


--------------------------------------------------------------------------------------------------------




--------------------------------------- Iteration      1(   8)  ---------------------------------------


     EDDAV:  cpu time   1325.4784: real time   1328.6575
       DOS:  cpu time      0.0174: real time      0.0174
    CHARGE:  cpu time     68.3243: real time     68.6880
    MIXING:  cpu time      0.1017: real time      0.1089
    --------------------------------------------
      LOOP:  cpu time   1393.9219: real time   1397.4719

 eigenvalue-minimisations  : 98192
 total energy-change (2. order) :-0.2537551E-03  (-0.2534146E-03)
 number of electron    1092.0000002 magnetization     124.0822676
 augmentation part       48.1259412 magnetization     103.3383124

 Broyden mixing:
  rms(total) = 0.34268E+02    rms(broyden)= 0.34266E+02
  rms(prec ) = 0.34303E+02
  weight for this iteration     100.00

 Free energy of the ion-electron system (eV)
  ---------------------------------------------------
  alpha Z        PSCENC =      2267.49158726
  Ewald energy   TEWEN  =   3383898.94607781
  -Hartree energ DENC   =  -3509022.78228572
  -exchange      EXHF   =         0.00000000
  -V(xc)+E(xc)   XCENC  =      5093.90927508
  PAW double counting   =    114634.50682011  -112156.22962523
  entropy T*S    EENTRO =        -0.06885470
  eigenvalues    EBANDS =    -23474.25783344
  atomic energy  EATOM  =    137687.85523574
  Solvation  Ecorr_sol  =         0.00000000
  ---------------------------------------------------
  free energy    TOTEN  =     -1070.62960310 eV

  energy without entropy =    -1070.56074839  energy(sigma->0) =    -1070.59517575


--------------------------------------------------------------------------------------------------------




--------------------------------------- Iteration      1(   9)  ---------------------------------------


    POTLOK:  cpu time      1.0426: real time      1.0742
    SETDIJ:  cpu time      2.6470: real time      2.6670
     EDDAV:  cpu time   1289.5275: real time   1293.8045
       DOS:  cpu time      0.0179: real time      0.0304
    CHARGE:  cpu time     67.9796: real time     68.3842
    MIXING:  cpu time      0.0341: real time      0.6511
    --------------------------------------------
      LOOP:  cpu time   1361.2490: real time   1366.6117

 eigenvalue-minimisations  : 94560
 total energy-change (2. order) : 0.4055328E+03  (-0.1520323E+03)
 number of electron    1092.0000002 magnetization     121.5810811
 augmentation part       45.0318733 magnetization      94.7379712

 Broyden mixing:
  rms(total) = 0.25283E+02    rms(broyden)= 0.25282E+02
  rms(prec ) = 0.25287E+02
  weight for this iteration     100.00

 eigenvalues of (default mixing * dielectric matrix)
  average eigenvalue GAMMA=   1.0672
  1.0672

 Free energy of the ion-electron system (eV)
  ---------------------------------------------------
  alpha Z        PSCENC =      2267.49158726
  Ewald energy   TEWEN  =   3383898.94607781
  -Hartree energ DENC   =  -3507899.13343164
  -exchange      EXHF   =         0.00000000
  -V(xc)+E(xc)   XCENC  =      5208.84107284
  PAW double counting   =    137909.62278707  -135606.62374400
  entropy T*S    EENTRO =        -0.04065863
  eigenvalues    EBANDS =    -24132.05571754
  atomic energy  EATOM  =    137687.85523574
  Solvation  Ecorr_sol  =         0.00000000
  ---------------------------------------------------
  free energy    TOTEN  =      -665.09679109 eV

  energy without entropy =     -665.05613246  energy(sigma->0) =     -665.07646177


--------------------------------------------------------------------------------------------------------




--------------------------------------- Iteration      1(  10)  ---------------------------------------


    POTLOK:  cpu time      1.0102: real time      1.0852
    SETDIJ:  cpu time      2.6554: real time      2.7307
     EDDAV:  cpu time   1303.0151: real time   1306.1257
       DOS:  cpu time      0.0224: real time      0.0225
    CHARGE:  cpu time     67.8538: real time     68.0153
    MIXING:  cpu time      0.0253: real time      0.1538
    --------------------------------------------
      LOOP:  cpu time   1374.5818: real time   1378.1328

 eigenvalue-minimisations  : 96128
 total energy-change (2. order) : 0.1875564E+02  (-0.2075404E+02)
 number of electron    1092.0000002 magnetization     118.2662793
 augmentation part       46.2532423 magnetization      94.6342607

 Broyden mixing:
  rms(total) = 0.13933E+02    rms(broyden)= 0.13933E+02
  rms(prec ) = 0.13943E+02
  weight for this iteration     100.00

 eigenvalues of (default mixing * dielectric matrix)
  average eigenvalue GAMMA=   1.3754
  2.1860  0.5649

 Free energy of the ion-electron system (eV)
  ---------------------------------------------------
  alpha Z        PSCENC =      2267.49158726
  Ewald energy   TEWEN  =   3383898.94607781
  -Hartree energ DENC   =  -3508279.45579446
  -exchange      EXHF   =         0.00000000
  -V(xc)+E(xc)   XCENC  =      5208.53013773
  PAW double counting   =    177138.26980493  -174698.71330793
  entropy T*S    EENTRO =        -0.05936606
  eigenvalues    EBANDS =    -23869.20552526
  atomic energy  EATOM  =    137687.85523574
  Solvation  Ecorr_sol  =         0.00000000
  ---------------------------------------------------
  free energy    TOTEN  =      -646.34115024 eV

  energy without entropy =     -646.28178418  energy(sigma->0) =     -646.31146721


--------------------------------------------------------------------------------------------------------




--------------------------------------- Iteration      1(  11)  ---------------------------------------


    POTLOK:  cpu time      1.0202: real time      1.0507
    SETDIJ:  cpu time      2.6360: real time      2.6422
     EDDAV:  cpu time   1250.0622: real time   1253.0414
       DOS:  cpu time      0.0242: real time      0.0243
    CHARGE:  cpu time     67.5152: real time     67.6764
    MIXING:  cpu time      0.0622: real time      0.0623
    --------------------------------------------
      LOOP:  cpu time   1321.3200: real time   1324.4974

 eigenvalue-minimisations  : 91136
 total energy-change (2. order) : 0.3231678E+02  (-0.5845915E+01)
 number of electron    1092.0000002 magnetization     116.4517593
 augmentation part       46.1085044 magnetization      96.8748452

 Broyden mixing:
  rms(total) = 0.51998E+01    rms(broyden)= 0.51984E+01
  rms(prec ) = 0.52620E+01
  weight for this iteration     100.00

 eigenvalues of (default mixing * dielectric matrix)
  average eigenvalue GAMMA=   1.3498
  2.6485  0.8077  0.5933

 Free energy of the ion-electron system (eV)
  ---------------------------------------------------
  alpha Z        PSCENC =      2267.49158726
  Ewald energy   TEWEN  =   3383898.94607781
  -Hartree energ DENC   =  -3508411.53698877
  -exchange      EXHF   =         0.00000000
  -V(xc)+E(xc)   XCENC  =      5229.53498503
  PAW double counting   =    206769.60801139  -204309.52327583
  entropy T*S    EENTRO =        -0.05835729
  eigenvalues    EBANDS =    -23746.34164826
  atomic energy  EATOM  =    137687.85523574
  Solvation  Ecorr_sol  =         0.00000000
  ---------------------------------------------------
  free energy    TOTEN  =      -614.02437292 eV

  energy without entropy =     -613.96601563  energy(sigma->0) =     -613.99519428


--------------------------------------------------------------------------------------------------------




--------------------------------------- Iteration      1(  12)  ---------------------------------------


    POTLOK:  cpu time      1.0308: real time      1.0334
    SETDIJ:  cpu time      2.7110: real time      2.7175
     EDDAV:  cpu time   1315.1446: real time   1318.2809
       DOS:  cpu time      0.0212: real time      0.0228
    CHARGE:  cpu time     67.3988: real time     67.5615
    MIXING:  cpu time      0.0267: real time      0.0432
    --------------------------------------------
      LOOP:  cpu time   1386.3335: real time   1389.6597

 eigenvalue-minimisations  : 97184
 total energy-change (2. order) : 0.2350781E+02  (-0.7252560E+01)
 number of electron    1092.0000002 magnetization     115.4630466
 augmentation part       45.8873334 magnetization      94.7554814

 Broyden mixing:
  rms(total) = 0.42656E+01    rms(broyden)= 0.42624E+01
  rms(prec ) = 0.43824E+01
  weight for this iteration     100.00

 eigenvalues of (default mixing * dielectric matrix)
  average eigenvalue GAMMA=   1.1514
  2.7183  0.8550  0.5707  0.4616

 Free energy of the ion-electron system (eV)
  ---------------------------------------------------
  alpha Z        PSCENC =      2267.49158726
  Ewald energy   TEWEN  =   3383898.94607781
  -Hartree energ DENC   =  -3508308.53873611
  -exchange      EXHF   =         0.00000000
  -V(xc)+E(xc)   XCENC  =      5248.56926662
  PAW double counting   =    209216.24987112  -206768.46028220
  entropy T*S    EENTRO =        -0.06642820
  eigenvalues    EBANDS =    -23832.56315311
  atomic energy  EATOM  =    137687.85523574
  Solvation  Ecorr_sol  =         0.00000000
  ---------------------------------------------------
  free energy    TOTEN  =      -590.51656108 eV

  energy without entropy =     -590.45013287  energy(sigma->0) =     -590.48334698


--------------------------------------------------------------------------------------------------------




--------------------------------------- Iteration      1(  13)  ---------------------------------------


    POTLOK:  cpu time      1.0305: real time      1.0577
    SETDIJ:  cpu time      2.6466: real time      2.6537
     EDDAV:  cpu time   1274.9213: real time   1279.8867
       DOS:  cpu time      0.0165: real time      0.0215
    CHARGE:  cpu time     67.8952: real time     68.0893
    MIXING:  cpu time      0.0567: real time      0.4062
    --------------------------------------------
      LOOP:  cpu time   1346.5671: real time   1352.1154

 eigenvalue-minimisations  : 93392
 total energy-change (2. order) : 0.1690908E+02  (-0.3794890E+01)
 number of electron    1092.0000002 magnetization     113.4721173
 augmentation part       45.6351324 magnetization      90.0056457

 Broyden mixing:
  rms(total) = 0.28309E+01    rms(broyden)= 0.28287E+01
  rms(prec ) = 0.28504E+01
  weight for this iteration     100.00

 eigenvalues of (default mixing * dielectric matrix)
  average eigenvalue GAMMA=   1.0484
  2.7675  0.9503  0.6070  0.6070  0.3103

 Free energy of the ion-electron system (eV)
  ---------------------------------------------------
  alpha Z        PSCENC =      2267.49158726
  Ewald energy   TEWEN  =   3383898.94607781
  -Hartree energ DENC   =  -3508416.80576118
  -exchange      EXHF   =         0.00000000
  -V(xc)+E(xc)   XCENC  =      5256.08903980
  PAW double counting   =    209901.30008369  -207451.72526475
  entropy T*S    EENTRO =        -0.05597907
  eigenvalues    EBANDS =    -23716.70249886
  atomic energy  EATOM  =    137687.85523574
  Solvation  Ecorr_sol  =         0.00000000
  ---------------------------------------------------
  free energy    TOTEN  =      -573.60747956 eV

  energy without entropy =     -573.55150049  energy(sigma->0) =     -573.57949003


--------------------------------------------------------------------------------------------------------




--------------------------------------- Iteration      1(  14)  ---------------------------------------


    POTLOK:  cpu time      1.0291: real time      1.0665
    SETDIJ:  cpu time      2.6567: real time      2.6638
     EDDAV:  cpu time   1169.4676: real time   1172.2652
       DOS:  cpu time      0.0162: real time      0.0163
    CHARGE:  cpu time     68.0561: real time     68.2179
    MIXING:  cpu time      0.0232: real time      0.0232
    --------------------------------------------
      LOOP:  cpu time   1241.2482: real time   1244.2520

 eigenvalue-minimisations  : 83584
 total energy-change (2. order) :-0.2863722E+02  (-0.7692653E+00)
 number of electron    1092.0000002 magnetization     108.9261489
 augmentation part       45.4643373 magnetization      83.7213369

 Broyden mixing:
  rms(total) = 0.23389E+01    rms(broyden)= 0.23387E+01
  rms(prec ) = 0.23393E+01
  weight for this iteration     100.00

 eigenvalues of (default mixing * dielectric matrix)
  average eigenvalue GAMMA=   1.0945
  2.8154  1.3217  0.7642  0.7642  0.5824  0.3194

 Free energy of the ion-electron system (eV)
  ---------------------------------------------------
  alpha Z        PSCENC =      2267.49158726
  Ewald energy   TEWEN  =   3383898.94607781
  -Hartree energ DENC   =  -3508464.90016218
  -exchange      EXHF   =         0.00000000
  -V(xc)+E(xc)   XCENC  =      5234.44535861
  PAW double counting   =    210242.61475738  -207788.46974608
  entropy T*S    EENTRO =        -0.05363248
  eigenvalues    EBANDS =    -23680.17417893
  atomic energy  EATOM  =    137687.85523574
  Solvation  Ecorr_sol  =         0.00000000
  ---------------------------------------------------
  free energy    TOTEN  =      -602.24470287 eV

  energy without entropy =     -602.19107039  energy(sigma->0) =     -602.21788663


--------------------------------------------------------------------------------------------------------




--------------------------------------- Iteration      1(  15)  ---------------------------------------


    POTLOK:  cpu time      1.0227: real time      1.0253
    SETDIJ:  cpu time      2.6556: real time      2.6620
     EDDAV:  cpu time   1210.7726: real time   1213.6627
       DOS:  cpu time      0.0218: real time      0.0230
    CHARGE:  cpu time     68.0675: real time     68.2296
    MIXING:  cpu time      0.0247: real time      0.0254
    --------------------------------------------
      LOOP:  cpu time   1282.5654: real time   1285.6286

 eigenvalue-minimisations  : 87408
 total energy-change (2. order) :-0.5075923E+02  (-0.1224188E+01)
 number of electron    1092.0000002 magnetization     106.4256131
 augmentation part       45.1631713 magnetization      81.0160353

 Broyden mixing:
  rms(total) = 0.22077E+01    rms(broyden)= 0.22076E+01
  rms(prec ) = 0.22126E+01
  weight for this iteration     100.00

 eigenvalues of (default mixing * dielectric matrix)
  average eigenvalue GAMMA=   1.1825
  2.8426  2.2999  0.7459  0.7459  0.7190  0.6054  0.3187

 Free energy of the ion-electron system (eV)
  ---------------------------------------------------
  alpha Z        PSCENC =      2267.49158726
  Ewald energy   TEWEN  =   3383898.94607781
  -Hartree energ DENC   =  -3508530.73191573
  -exchange      EXHF   =         0.00000000
  -V(xc)+E(xc)   XCENC  =      5206.75967035
  PAW double counting   =    208940.41048184  -206487.08669483
  entropy T*S    EENTRO =        -0.03975560
  eigenvalues    EBANDS =    -23636.60861815
  atomic energy  EATOM  =    137687.85523574
  Solvation  Ecorr_sol  =         0.00000000
  ---------------------------------------------------
  free energy    TOTEN  =      -653.00393132 eV

  energy without entropy =     -652.96417572  energy(sigma->0) =     -652.98405352


--------------------------------------------------------------------------------------------------------




--------------------------------------- Iteration      1(  16)  ---------------------------------------


    POTLOK:  cpu time      1.0322: real time      1.0605
    SETDIJ:  cpu time      2.6579: real time      2.6647
     EDDAV:  cpu time   1238.9168: real time   1241.8816
       DOS:  cpu time      0.0164: real time      0.0165
    CHARGE:  cpu time     68.0673: real time     68.2293
    MIXING:  cpu time      0.0257: real time      0.0257
    --------------------------------------------
      LOOP:  cpu time   1310.7156: real time   1313.8776

 eigenvalue-minimisations  : 90112
 total energy-change (2. order) :-0.1161343E+02  (-0.1881602E+00)
 number of electron    1092.0000002 magnetization     105.5079734
 augmentation part       45.0958222 magnetization      80.9154780

 Broyden mixing:
  rms(total) = 0.21230E+01    rms(broyden)= 0.21229E+01
  rms(prec ) = 0.21259E+01
  weight for this iteration     100.00

 eigenvalues of (default mixing * dielectric matrix)
  average eigenvalue GAMMA=   1.1281
  2.6146  2.6146  0.8029  0.8029  0.3175  0.7194  0.5764  0.5764

 Free energy of the ion-electron system (eV)
  ---------------------------------------------------
  alpha Z        PSCENC =      2267.49158726
  Ewald energy   TEWEN  =   3383898.94607781
  -Hartree energ DENC   =  -3508517.68865334
  -exchange      EXHF   =         0.00000000
  -V(xc)+E(xc)   XCENC  =      5201.64780375
  PAW double counting   =    207704.00310666  -205254.72444115
  entropy T*S    EENTRO =        -0.04696890
  eigenvalues    EBANDS =    -23652.10111341
  atomic energy  EATOM  =    137687.85523574
[...]
      4.76376      6.04061     12.14859         0.003386      0.011150     -0.007620
      7.94127      6.04061     12.14859         0.003386      0.011150     -0.007620
      0.00000      4.80172     14.13814        -0.009972      0.072457     -0.016970
      3.17751      4.80172     14.13814        -0.009972      0.072457     -0.016970
      6.35503      4.80172     14.13814        -0.009972      0.072457     -0.016970
      1.58876      0.37321     15.36550         0.000222      0.023358      0.006153
      4.76627      0.37321     15.36550         0.000222      0.023358      0.006153
      7.94378      0.37321     15.36550         0.000222      0.023358      0.006153
      0.00000      4.80172     16.59286        -0.004744     -0.000621      0.002678
      3.17751      4.80172     16.59286        -0.004744     -0.000621      0.002678
      6.35503      4.80172     16.59286        -0.004744     -0.000621      0.002678
      1.58876      2.82793     15.36550        -0.002240     -0.026451     -0.002850
      4.76627      2.82793     15.36550        -0.002240     -0.026451     -0.002850
      7.94378      2.82793     15.36550        -0.002240     -0.026451     -0.002850
      0.00000      1.60057     17.33929         0.004744      0.000621     -0.002678
      3.17751      1.60057     17.33929         0.004744      0.000621     -0.002678
      6.35503      1.60057     17.33929         0.004744      0.000621     -0.002678
      1.58876      3.57436     18.56665         0.002240      0.026451      0.002850
      4.76627      3.57436     18.56665         0.002240      0.026451      0.002850
      7.94378      3.57436     18.56665         0.002240      0.026451      0.002850
      0.00000      1.60057     19.79400         0.009972     -0.072457      0.016970
      3.17751      1.60057     19.79400         0.009972     -0.072457      0.016970
      6.35503      1.60057     19.79400         0.009972     -0.072457      0.016970
      1.58876      6.02908     18.56665        -0.000222     -0.023358     -0.006153
      4.76627      6.02908     18.56665        -0.000222     -0.023358     -0.006153
      7.94378      6.02908     18.56665        -0.000222     -0.023358     -0.006153
      0.00236      4.80714     20.54097         0.008213     -0.005931      0.029211
      3.17988      4.80714     20.54097         0.008213     -0.005931      0.029211
      6.35739      4.80714     20.54097         0.008213     -0.005931      0.029211
      1.59126      0.36168     21.78356        -0.003386     -0.011150      0.007620
      4.76878      0.36168     21.78356        -0.003386     -0.011150      0.007620
      7.94629      0.36168     21.78356        -0.003386     -0.011150      0.007620
      0.00486      4.73297     22.98557        -0.003700      0.003017      0.036323
      3.18237      4.73297     22.98557        -0.003700      0.003017      0.036323
      6.35988      4.73297     22.98557        -0.003700      0.003017      0.036323
      1.59199      2.81394     21.74504         0.001723      0.014599     -0.001329
      4.76950      2.81394     21.74504         0.001723      0.014599     -0.001329
      7.94702      2.81394     21.74504         0.001723      0.014599     -0.001329
      0.00293      1.66123     23.73864        -0.003564     -0.001589     -0.013389
      3.18045      1.66123     23.73864        -0.003564     -0.001589     -0.013389
      6.35796      1.66123     23.73864        -0.003564     -0.001589     -0.013389
      1.59891      3.57724     25.08315        -0.005827      0.023905      0.006343
      4.77642      3.57724     25.08315        -0.005827      0.023905      0.006343
      7.95393      3.57724     25.08315        -0.005827      0.023905      0.006343
      0.00176      1.50763     26.27670        -0.003644      0.009883     -0.002084
      3.17928      1.50763     26.27670        -0.003644      0.009883     -0.002084
      6.35679      1.50763     26.27670        -0.003644      0.009883     -0.002084
      1.58829      6.03847     24.89146         0.003793     -0.014915     -0.013077
      4.76580      6.03847     24.89146         0.003793     -0.014915     -0.013077
      7.94332      6.03847     24.89146         0.003793     -0.014915     -0.013077
      0.04868      1.22968      6.98313         0.015917     -0.005155      0.003312
      9.48386      5.17261     26.94892        -0.015917      0.005155     -0.003312
      3.22619      1.22968      6.98313         0.015917     -0.005155      0.003312
      6.30635      5.17261     26.94892        -0.015917      0.005155     -0.003312
      6.40370      1.22968      6.98313         0.015917     -0.005155      0.003312
      3.12883      5.17261     26.94892        -0.015917      0.005155     -0.003312
 -----------------------------------------------------------------------------------
    total drift:                               -0.001058     -0.001479    -17.879391


--------------------------------------------------------------------------------------------------------



  FREE ENERGIE OF THE ION-ELECTRON SYSTEM (eV)
  ---------------------------------------------------
  free  energy   TOTEN  =      -870.67025835 eV

  energy  without entropy=     -870.60737422  energy(sigma->0) =     -870.63881629
 


--------------------------------------------------------------------------------------------------------


    POTLOK:  cpu time      3.6468: real time      3.7675


--------------------------------------------------------------------------------------------------------


     LOOP+:  cpu time  83099.7841: real time  83346.6666
    4ORBIT:  cpu time      0.0003: real time      0.0247



 total charge

# of ion       s       p       d       f       tot
--------------------------------------------------
    1        0.578   0.112   0.001   0.000   0.691
    2        0.578   0.112   0.001   0.000   0.691
    3        0.578   0.112   0.001   0.000   0.691
    4        0.578   0.112   0.001   0.000   0.691
    5        0.578   0.112   0.001   0.000   0.691
    6        0.578   0.112   0.001   0.000   0.691
    7        0.621   0.112   0.002   0.000   0.736
    8        0.621   0.112   0.002   0.000   0.736
    9        0.621   0.112   0.002   0.000   0.736
   10        0.621   0.112   0.002   0.000   0.736
   11        0.621   0.112   0.002   0.000   0.736
   12        0.621   0.112   0.002   0.000   0.736
   13        3.609   6.112   6.194   0.055  15.970
   14        3.609   6.112   6.194   0.055  15.970
   15        3.609   6.112   6.194   0.055  15.970
   16        3.642   6.115   6.165   0.058  15.979
   17        3.642   6.115   6.165   0.058  15.979
   18        3.642   6.115   6.165   0.058  15.979
   19        3.649   6.119   6.174   0.061  16.003
   20        3.649   6.119   6.174   0.061  16.003
   21        3.649   6.119   6.174   0.061  16.003
   22        3.643   6.119   6.176   0.061  15.999
   23        3.643   6.119   6.176   0.061  15.999
   24        3.643   6.119   6.176   0.061  15.999
   25        3.640   6.118   6.181   0.061  16.000
   26        3.640   6.118   6.181   0.061  16.000
   27        3.640   6.118   6.181   0.061  16.000
   28        3.641   6.118   6.180   0.061  15.999
   29        3.641   6.118   6.180   0.061  15.999
   30        3.641   6.118   6.180   0.061  15.999
   31        3.640   6.118   6.181   0.061  16.000
   32        3.640   6.118   6.181   0.061  16.000
   33        3.640   6.118   6.181   0.061  16.000
   34        3.641   6.118   6.180   0.061  15.999
   35        3.641   6.118   6.180   0.061  15.999
   36        3.641   6.118   6.180   0.061  15.999
   37        3.649   6.119   6.174   0.061  16.003
   38        3.649   6.119   6.174   0.061  16.003
   39        3.649   6.119   6.174   0.061  16.003
   40        3.643   6.119   6.176   0.061  15.999
   41        3.643   6.119   6.176   0.061  15.999
   42        3.643   6.119   6.176   0.061  15.999
   43        3.609   6.112   6.194   0.055  15.970
   44        3.609   6.112   6.194   0.055  15.970
   45        3.609   6.112   6.194   0.055  15.970
   46        3.642   6.115   6.165   0.058  15.979
   47        3.642   6.115   6.165   0.058  15.979
   48        3.642   6.115   6.165   0.058  15.979
   49        1.634   3.657   0.036   0.000   5.327
   50        1.634   3.657   0.036   0.000   5.327
   51        1.634   3.657   0.036   0.000   5.327
   52        1.629   3.593   0.037   0.000   5.259
   53        1.629   3.593   0.037   0.000   5.259
   54        1.629   3.593   0.037   0.000   5.259
   55        1.627   3.593   0.036   0.000   5.256
   56        1.627   3.593   0.036   0.000   5.256
   57        1.627   3.593   0.036   0.000   5.256
   58        1.630   3.571   0.035   0.000   5.236
   59        1.630   3.571   0.035   0.000   5.236
   60        1.630   3.571   0.035   0.000   5.236
   61        1.630   3.586   0.035   0.000   5.251
   62        1.630   3.586   0.035   0.000   5.251
   63        1.630   3.586   0.035   0.000   5.251
   64        1.628   3.599   0.036   0.000   5.263
   65        1.628   3.599   0.036   0.000   5.263
   66        1.628   3.599   0.036   0.000   5.263
   67        1.629   3.595   0.036   0.000   5.259
   68        1.629   3.595   0.036   0.000   5.259
   69        1.629   3.595   0.036   0.000   5.259
   70        1.628   3.592   0.035   0.000   5.255
   71        1.628   3.592   0.035   0.000   5.255
   72        1.628   3.592   0.035   0.000   5.255
   73        1.629   3.594   0.036   0.000   5.258
   74        1.629   3.594   0.036   0.000   5.258
   75        1.629   3.594   0.036   0.000   5.258
   76        1.628   3.595   0.036   0.000   5.259
   77        1.628   3.595   0.036   0.000   5.259
   78        1.628   3.595   0.036   0.000   5.259
   79        1.628   3.597   0.036   0.000   5.260
   80        1.628   3.597   0.036   0.000   5.260
   81        1.628   3.597   0.036   0.000   5.260
   82        1.628   3.595   0.036   0.000   5.259
   83        1.628   3.595   0.036   0.000   5.259
   84        1.628   3.595   0.036   0.000   5.259
   85        1.628   3.597   0.036   0.000   5.260
   86        1.628   3.597   0.036   0.000   5.260
   87        1.628   3.597   0.036   0.000   5.260
   88        1.628   3.595   0.036   0.000   5.259
   89        1.628   3.595   0.036   0.000   5.259
   90        1.628   3.595   0.036   0.000   5.259
   91        1.629   3.594   0.036   0.000   5.258
   92        1.629   3.594   0.036   0.000   5.258
   93        1.629   3.594   0.036   0.000   5.258
   94        1.628   3.595   0.036   0.000   5.259
   95        1.628   3.595   0.036   0.000   5.259
   96        1.628   3.595   0.036   0.000   5.259
   97        1.629   3.595   0.036   0.000   5.259
   98        1.629   3.595   0.036   0.000   5.259
   99        1.629   3.595   0.036   0.000   5.259
  100        1.628   3.592   0.035   0.000   5.255
  101        1.628   3.592   0.035   0.000   5.255
  102        1.628   3.592   0.035   0.000   5.255
  103        1.630   3.586   0.035   0.000   5.251
  104        1.630   3.586   0.035   0.000   5.251
  105        1.630   3.586   0.035   0.000   5.251
  106        1.628   3.599   0.036   0.000   5.263
  107        1.628   3.599   0.036   0.000   5.263
  108        1.628   3.599   0.036   0.000   5.263
  109        1.627   3.593   0.036   0.000   5.256
  110        1.627   3.593   0.036   0.000   5.256
  111        1.627   3.593   0.036   0.000   5.256
  112        1.630   3.571   0.035   0.000   5.236
  113        1.630   3.571   0.035   0.000   5.236
  114        1.630   3.571   0.035   0.000   5.236
  115        1.634   3.657   0.036   0.000   5.327
  116        1.634   3.657   0.036   0.000   5.327
  117        1.634   3.657   0.036   0.000   5.327
  118        1.629   3.593   0.037   0.000   5.259
  119        1.629   3.593   0.037   0.000   5.259
  120        1.629   3.593   0.037   0.000   5.259
  121        1.637   3.650   0.033   0.000   5.321
  122        1.637   3.650   0.033   0.000   5.321
  123        1.637   3.650   0.033   0.000   5.321
  124        1.637   3.650   0.033   0.000   5.321
  125        1.637   3.650   0.033   0.000   5.321
  126        1.637   3.650   0.033   0.000   5.321
--------------------------------------------------
tot        265.242 502.457 225.199   2.138 995.036



 magnetization (x)

# of ion       s       p       d       f       tot
--------------------------------------------------
    1        0.000  -0.000  -0.000   0.000   0.000
    2        0.000  -0.000  -0.000   0.000   0.000
    3        0.000  -0.000  -0.000   0.000   0.000
    4        0.000  -0.000  -0.000   0.000   0.000
    5        0.000  -0.000  -0.000   0.000   0.000
    6        0.000  -0.000  -0.000   0.000   0.000
    7        0.000  -0.000   0.000   0.000  -0.000
    8        0.000  -0.000   0.000   0.000  -0.000
    9        0.000  -0.000   0.000   0.000  -0.000
   10        0.000  -0.000   0.000   0.000  -0.000
   11        0.000  -0.000   0.000   0.000  -0.000
   12        0.000  -0.000   0.000   0.000  -0.000
   13        0.000   0.000   0.000   0.000   0.000
   14        0.000   0.000   0.000   0.000   0.000
   15        0.000   0.000   0.000   0.000   0.000
   16        0.000   0.000   0.000   0.000   0.000
   17        0.000   0.000   0.000   0.000   0.000
   18        0.000   0.000   0.000   0.000   0.000
   19        0.000   0.000   0.000   0.000   0.000
   20        0.000   0.000   0.000   0.000   0.000
   21        0.000   0.000   0.000   0.000   0.000
   22        0.000   0.000   0.000   0.000   0.000
   23        0.000   0.000   0.000   0.000   0.000
   24        0.000   0.000   0.000   0.000   0.000
   25        0.000   0.000  -0.000   0.000   0.000
   26        0.000   0.000  -0.000   0.000   0.000
   27        0.000   0.000  -0.000   0.000   0.000
   28        0.000   0.000  -0.000   0.000   0.000
   29        0.000   0.000  -0.000   0.000   0.000
   30        0.000   0.000  -0.000   0.000   0.000
   31        0.000   0.000  -0.000   0.000   0.000
   32        0.000   0.000  -0.000   0.000   0.000
   33        0.000   0.000  -0.000   0.000   0.000
   34        0.000   0.000  -0.000   0.000   0.000
   35        0.000   0.000  -0.000   0.000   0.000
   36        0.000   0.000  -0.000   0.000   0.000
   37        0.000   0.000   0.000   0.000   0.000
   38        0.000   0.000   0.000   0.000   0.000
   39        0.000   0.000   0.000   0.000   0.000
   40        0.000   0.000   0.000   0.000   0.000
   41        0.000   0.000   0.000   0.000   0.000
   42        0.000   0.000   0.000   0.000   0.000
   43        0.000   0.000   0.000   0.000   0.000
   44        0.000   0.000   0.000   0.000   0.000
   45        0.000   0.000   0.000   0.000   0.000
   46        0.000   0.000   0.000   0.000   0.000
   47        0.000   0.000   0.000   0.000   0.000
   48        0.000   0.000   0.000   0.000   0.000
   49       -0.000  -0.000   0.000   0.000  -0.000
   50       -0.000  -0.000   0.000   0.000  -0.000
   51       -0.000  -0.000   0.000   0.000  -0.000
   52       -0.000  -0.000   0.000   0.000  -0.000
   53       -0.000  -0.000   0.000   0.000  -0.000
   54       -0.000  -0.000   0.000   0.000  -0.000
   55       -0.000   0.000   0.000   0.000   0.000
   56       -0.000   0.000   0.000   0.000   0.000
   57       -0.000   0.000   0.000   0.000   0.000
   58       -0.000  -0.000   0.000   0.000  -0.000
   59       -0.000  -0.000   0.000   0.000  -0.000
   60       -0.000  -0.000   0.000   0.000  -0.000
   61       -0.000   0.000   0.000   0.000   0.000
   62       -0.000   0.000   0.000   0.000   0.000
   63       -0.000   0.000   0.000   0.000   0.000
   64       -0.000   0.000   0.000   0.000  -0.000
   65       -0.000   0.000   0.000   0.000  -0.000
   66       -0.000   0.000   0.000   0.000  -0.000
   67       -0.000  -0.000   0.000   0.000  -0.000
   68       -0.000  -0.000   0.000   0.000  -0.000
   69       -0.000  -0.000   0.000   0.000  -0.000
   70       -0.000   0.000   0.000   0.000   0.000
   71       -0.000   0.000   0.000   0.000   0.000
   72       -0.000   0.000   0.000   0.000   0.000
   73       -0.000  -0.000   0.000   0.000  -0.000
   74       -0.000  -0.000   0.000   0.000  -0.000
   75       -0.000  -0.000   0.000   0.000  -0.000
   76       -0.000  -0.000   0.000   0.000  -0.000
   77       -0.000  -0.000   0.000   0.000  -0.000
   78       -0.000  -0.000   0.000   0.000  -0.000
   79       -0.000  -0.000   0.000   0.000  -0.000
   80       -0.000  -0.000   0.000   0.000  -0.000
   81       -0.000  -0.000   0.000   0.000  -0.000
   82       -0.000  -0.000   0.000   0.000  -0.000
   83       -0.000  -0.000   0.000   0.000  -0.000
   84       -0.000  -0.000   0.000   0.000  -0.000
   85       -0.000  -0.000   0.000   0.000  -0.000
   86       -0.000  -0.000   0.000   0.000  -0.000
   87       -0.000  -0.000   0.000   0.000  -0.000
   88       -0.000  -0.000   0.000   0.000  -0.000
   89       -0.000  -0.000   0.000   0.000  -0.000
   90       -0.000  -0.000   0.000   0.000  -0.000
   91       -0.000  -0.000   0.000   0.000  -0.000
   92       -0.000  -0.000   0.000   0.000  -0.000
   93       -0.000  -0.000   0.000   0.000  -0.000
   94       -0.000  -0.000   0.000   0.000  -0.000
   95       -0.000  -0.000   0.000   0.000  -0.000
   96       -0.000  -0.000   0.000   0.000  -0.000
   97       -0.000  -0.000   0.000   0.000  -0.000
   98       -0.000  -0.000   0.000   0.000  -0.000
   99       -0.000  -0.000   0.000   0.000  -0.000
  100       -0.000   0.000   0.000   0.000   0.000
  101       -0.000   0.000   0.000   0.000   0.000
  102       -0.000   0.000   0.000   0.000   0.000
  103       -0.000   0.000   0.000   0.000   0.000
  104       -0.000   0.000   0.000   0.000   0.000
  105       -0.000   0.000   0.000   0.000   0.000
  106       -0.000   0.000   0.000   0.000  -0.000
  107       -0.000   0.000   0.000   0.000  -0.000
  108       -0.000   0.000   0.000   0.000  -0.000
  109       -0.000   0.000   0.000   0.000   0.000
  110       -0.000   0.000   0.000   0.000   0.000
  111       -0.000   0.000   0.000   0.000   0.000
  112       -0.000  -0.000   0.000   0.000  -0.000
  113       -0.000  -0.000   0.000   0.000  -0.000
  114       -0.000  -0.000   0.000   0.000  -0.000
  115       -0.000  -0.000   0.000   0.000  -0.000
  116       -0.000  -0.000   0.000   0.000  -0.000
  117       -0.000  -0.000   0.000   0.000  -0.000
  118       -0.000  -0.000   0.000   0.000  -0.000
  119       -0.000  -0.000   0.000   0.000  -0.000
  120       -0.000  -0.000   0.000   0.000  -0.000
  121       -0.000   0.000   0.000   0.000   0.000
  122       -0.000   0.000   0.000   0.000   0.000
  123       -0.000   0.000   0.000   0.000   0.000
  124       -0.000   0.000   0.000   0.000   0.000
  125       -0.000   0.000   0.000   0.000   0.000
  126       -0.000   0.000   0.000   0.000   0.000
--------------------------------------------------
tot          0.000  -0.000   0.000   0.000   0.000
 

 total amount of memory used by VASP MPI-rank0  1142940. kBytes
=======================================================================

   base      :      30000. kBytes
   nonlr-proj:     194856. kBytes
   fftplans  :     107811. kBytes
   grid      :     129874. kBytes
   one-center:       1687. kBytes
   wavefun   :     678712. kBytes
 
  
  
 General timing and accounting informations for this job:
 ========================================================
  
                  Total CPU time used (sec):    83869.625
                            User time (sec):    83262.273
                          System time (sec):      607.353
                         Elapsed time (sec):    84127.541
  
                   Maximum memory used (kb):     1515184.
                   Average memory used (kb):          N/A
  
                          Minor page faults:      8301311
                          Major page faults:            0
                 Voluntary context switches:       546531
