       N       E                     dE             d eps       ncg     rms          rms(c)
DAV:   1     0.141744875174E+05    0.14174E+05   -0.61368E+05 20640   0.134E+03
DAV:   2     0.395974826128E+03   -0.13779E+05   -0.13125E+05 23792   0.564E+02
DAV:   3    -0.100732641935E+04   -0.14033E+04   -0.13704E+04 20816   0.163E+02
DAV:   4    -0.106381203844E+04   -0.56486E+02   -0.55139E+02 24144   0.405E+01
DAV:   5    -0.106558512382E+04   -0.17731E+01   -0.17402E+01 22464   0.634E+00
DAV:   6    -0.106566518021E+04   -0.80056E-01   -0.79532E-01 24128   0.146E+00
DAV:   7    -0.106566892396E+04   -0.37437E-02   -0.37358E-02 22320   0.261E-01
DAV:   8    -0.106566915048E+04   -0.22652E-03   -0.22627E-03 19776   0.636E-02    0.346E+02
DAV:   9    -0.662075348227E+03    0.40359E+03   -0.15222E+03 22144   0.629E+01    0.261E+02
DAV:  10    -0.682394362207E+03   -0.20319E+02   -0.38463E+02 23072   0.409E+01    0.151E+02
DAV:  11    -0.596073602750E+03    0.86321E+02   -0.15864E+02 23600   0.271E+01    0.823E+01
DAV:  12    -0.576812828092E+03    0.19261E+02   -0.38466E+02 22304   0.256E+01    0.158E+02
DAV:  13    -0.560201034322E+03    0.16612E+02   -0.58645E+01 20304   0.101E+01    0.704E+01
DAV:  14    -0.540110850410E+03    0.20090E+02   -0.18626E+01 21680   0.578E+00    0.482E+01
DAV:  15    -0.547760143351E+03   -0.76493E+01   -0.11322E+01 21776   0.450E+00    0.370E+01
DAV:  16    -0.568205295053E+03   -0.20445E+02   -0.87718E+00 20848   0.421E+00    0.306E+01
DAV:  17    -0.595380429122E+03   -0.27175E+02   -0.87981E+00 21600   0.478E+00    0.266E+01
DAV:  18    -0.632449360054E+03   -0.37069E+02   -0.13711E+01 19136   0.513E+00    0.269E+01
DAV:  19    -0.642110113183E+03   -0.96608E+01   -0.21906E+00 20432   0.262E+00    0.242E+01
DAV:  20    -0.651611249390E+03   -0.95011E+01   -0.17173E+00 20368   0.182E+00    0.258E+01
DAV:  21    -0.652907472737E+03   -0.12962E+01   -0.35758E-01 20096   0.107E+00    0.237E+01
DAV:  22    -0.664889082956E+03   -0.11982E+02   -0.20316E+00 19408   0.179E+00    0.209E+01
DAV:  23    -0.673170854964E+03   -0.82818E+01   -0.63925E-01 19792   0.109E+00    0.202E+01
DAV:  24    -0.707659183942E+03   -0.34488E+02   -0.13881E+01 19840   0.449E+00    0.297E+01
DAV:  25    -0.733042054681E+03   -0.25383E+02   -0.15666E+01 19456   0.437E+00    0.209E+01
DAV:  26    -0.784213046138E+03   -0.51171E+02   -0.50036E+01 21088   0.720E+00    0.269E+01
DAV:  27    -0.794621770044E+03   -0.10409E+02   -0.18117E+01 21248   0.435E+00    0.219E+01
DAV:  28    -0.804814623117E+03   -0.10193E+02   -0.30566E+00 20768   0.258E+00    0.213E+01
DAV:  29    -0.807978122374E+03   -0.31635E+01   -0.22444E+00 22000   0.193E+00    0.201E+01
DAV:  30    -0.817018000267E+03   -0.90399E+01   -0.14427E+00 19200   0.152E+00    0.159E+01
DAV:  31    -0.820788505884E+03   -0.37705E+01   -0.17069E+00 19328   0.175E+00    0.104E+01
DAV:  32    -0.825299539787E+03   -0.45110E+01   -0.11679E+00 20752   0.140E+00    0.104E+01
DAV:  33    -0.826202962864E+03   -0.90342E+00   -0.35161E-01 20496   0.897E-01    0.987E+00
DAV:  34    -0.827278635427E+03   -0.10757E+01   -0.26663E-01 20256   0.100E+00    0.669E+00
DAV:  35    -0.828441875128E+03   -0.11632E+01   -0.25427E-01 20208   0.909E-01    0.409E+00
DAV:  36    -0.830239719115E+03   -0.17978E+01   -0.24373E-01 20224   0.639E-01    0.395E+00
DAV:  37    -0.833159848584E+03   -0.29201E+01   -0.31366E-01 20080   0.745E-01    0.344E+00
DAV:  38    -0.835741073350E+03   -0.25812E+01   -0.18708E-01 19520   0.532E-01    0.326E+00
DAV:  39    -0.837199776854E+03   -0.14587E+01   -0.10622E-01 20464   0.433E-01    0.283E+00
DAV:  40    -0.838048162072E+03   -0.84839E+00   -0.35289E-02 21264   0.268E-01    0.215E+00
DAV:  41    -0.838236891331E+03   -0.18873E+00   -0.64373E-03 20896   0.154E-01    0.147E+00
DAV:  42    -0.838329645578E+03   -0.92754E-01   -0.56332E-03 20080   0.120E-01    0.822E-01
DAV:  43    -0.838390852688E+03   -0.61207E-01   -0.70103E-03 21520   0.135E-01    0.545E-01
DAV:  44    -0.838431159940E+03   -0.40307E-01   -0.34807E-03 21360   0.935E-02    0.430E-01
DAV:  45    -0.838502363971E+03   -0.71204E-01   -0.56672E-03 21632   0.102E-01    0.414E-01
DAV:  46    -0.838578399316E+03   -0.76035E-01   -0.53224E-03 21792   0.964E-02    0.484E-01
DAV:  47    -0.838633096237E+03   -0.54697E-01   -0.29020E-03 21856   0.748E-02    0.430E-01
DAV:  48    -0.838666836982E+03   -0.33741E-01   -0.70147E-04 18832   0.399E-02    0.311E-01
DAV:  49    -0.838683279182E+03   -0.16442E-01   -0.19018E-04 14960   0.264E-02    0.192E-01
DAV:  50    -0.838706028046E+03   -0.22749E-01   -0.15535E-04 13648   0.207E-02    0.127E-01
DAV:  51    -0.838715905720E+03   -0.98777E-02   -0.71512E-05 12928   0.157E-02    0.109E-01
DAV:  52    -0.838720825217E+03   -0.49195E-02   -0.13359E-04 13600   0.179E-02    0.807E-02
DAV:  53    -0.838722290191E+03   -0.14650E-02   -0.62379E-05 12080   0.123E-02    0.564E-02
DAV:  54    -0.838723251548E+03   -0.96136E-03   -0.63245E-05 12064   0.123E-02    0.254E-02
DAV:  55    -0.838724174948E+03   -0.92340E-03   -0.29617E-05 11152   0.107E-02    0.313E-02
DAV:  56    -0.838724803594E+03   -0.62865E-03   -0.17291E-05 11360   0.791E-03    0.245E-02
DAV:  57    -0.838725810130E+03   -0.10065E-02   -0.11981E-04 12496   0.147E-02    0.315E-02
DAV:  58    -0.838727875347E+03   -0.20652E-02   -0.12668E-04 13792   0.149E-02    0.526E-02
DAV:  59    -0.838728624331E+03   -0.74898E-03   -0.23418E-05 11696   0.102E-02    0.364E-02
DAV:  60    -0.838729140771E+03   -0.51644E-03   -0.22716E-05 11296   0.656E-03    0.365E-02
DAV:  61    -0.838729493000E+03   -0.35223E-03   -0.50503E-05 12096   0.936E-03    0.273E-02
DAV:  62    -0.838729615805E+03   -0.12281E-03   -0.61204E-05 11504   0.102E-02    0.156E-02
DAV:  63    -0.838729701162E+03   -0.85357E-04   -0.38368E-05 11408   0.915E-03
   1 F= -.83872970E+03 E0= -.83868761E+03  d E =-.838730E+03  mag=     1.6899
       N       E                     dE             d eps       ncg     rms          rms(c)
DAV:   1    -0.810241195628E+03    0.28488E+02   -0.36342E+03 18784   0.966E+01    0.479E+01
DAV:   2    -0.858835940362E+03   -0.48595E+02   -0.36767E+02 23344   0.301E+01    0.605E+01
DAV:   3    -0.838621292735E+03    0.20215E+02   -0.49072E+01 24016   0.163E+01    0.407E+01
DAV:   4    -0.836765482462E+03    0.18558E+01   -0.29629E+01 24016   0.916E+00    0.356E+01
DAV:   5    -0.832552827835E+03    0.42127E+01   -0.65288E+00 23648   0.487E+00    0.227E+01
DAV:   6    -0.831118361507E+03    0.14345E+01   -0.25480E+00 23328   0.334E+00    0.134E+01
DAV:   7    -0.830853046469E+03    0.26532E+00   -0.84355E-01 21008   0.164E+00    0.976E+00
DAV:   8    -0.830905222502E+03   -0.52176E-01   -0.29048E-01 23792   0.109E+00    0.976E+00
DAV:   9    -0.830986488310E+03   -0.81266E-01   -0.14521E+00 23392   0.189E+00    0.982E+00
DAV:  10    -0.830570981241E+03    0.41551E+00   -0.51216E-01 22160   0.154E+00    0.257E+00
DAV:  11    -0.830579362321E+03   -0.83811E-02   -0.91054E-02 20608   0.585E-01    0.165E+00
DAV:  12    -0.830591856005E+03   -0.12494E-01   -0.17809E-02 20576   0.247E-01    0.155E+00
DAV:  13    -0.830612424362E+03   -0.20568E-01   -0.11220E-02 21920   0.184E-01    0.631E-01
DAV:  14    -0.830640433733E+03   -0.28009E-01   -0.75608E-03 20368   0.137E-01    0.383E-01
DAV:  15    -0.830655491586E+03   -0.15058E-01   -0.23032E-03 21488   0.934E-02    0.342E-01
DAV:  16    -0.830673342064E+03   -0.17850E-01   -0.30969E-03 20976   0.835E-02    0.301E-01
DAV:  17    -0.830687437778E+03   -0.14096E-01   -0.41580E-03 21200   0.858E-02    0.252E-01
DAV:  18    -0.830700717796E+03   -0.13280E-01   -0.45789E-03 21312   0.912E-02    0.228E-01
DAV:  19    -0.830711677247E+03   -0.10959E-01   -0.68893E-03 21008   0.116E-01    0.167E-01
DAV:  20    -0.830707954130E+03    0.37231E-02   -0.91673E-03 21680   0.132E-01    0.129E-01
DAV:  21    -0.830722171682E+03   -0.14218E-01   -0.17420E-03 18528   0.628E-02    0.723E-02
DAV:  22    -0.830722464063E+03   -0.29238E-03   -0.55072E-04 17280   0.335E-02    0.773E-02
DAV:  23    -0.830721469135E+03    0.99493E-03   -0.10499E-03 19760   0.435E-02    0.663E-02
DAV:  24    -0.830724809200E+03   -0.33401E-02   -0.66240E-04 17472   0.385E-02    0.443E-02
DAV:  25    -0.830725366838E+03   -0.55764E-03   -0.17654E-04 13072   0.202E-02    0.534E-02
DAV:  26    -0.830726131767E+03   -0.76493E-03   -0.42662E-05 12336   0.123E-02    0.541E-02
DAV:  27    -0.830727552556E+03   -0.14208E-02   -0.17418E-04 14704   0.180E-02    0.547E-02
DAV:  28    -0.830727200555E+03    0.35200E-03   -0.11662E-04 14384   0.154E-02    0.621E-02
DAV:  29    -0.830726316216E+03    0.88434E-03   -0.10586E-04 13408   0.127E-02    0.531E-02
DAV:  30    -0.830724675070E+03    0.16411E-02   -0.10504E-04 14048   0.117E-02    0.453E-02
DAV:  31    -0.830723070260E+03    0.16048E-02   -0.77703E-05 11872   0.134E-02    0.418E-02
DAV:  32    -0.830721892664E+03    0.11776E-02   -0.71901E-05 12544   0.114E-02    0.360E-02
DAV:  33    -0.830722018044E+03   -0.12538E-03   -0.66575E-05 11344   0.130E-02    0.282E-02
DAV:  34    -0.830724317917E+03   -0.22999E-02   -0.40118E-05 11904   0.102E-02    0.223E-02
DAV:  35    -0.830727546770E+03   -0.32289E-02   -0.97840E-05 11712   0.171E-02    0.206E-02
DAV:  36    -0.830730365031E+03   -0.28183E-02   -0.31179E-05 11728   0.115E-02    0.189E-02
DAV:  37    -0.830731262507E+03   -0.89748E-03   -0.15264E-05 11008   0.793E-03    0.143E-02
DAV:  38    -0.830731526781E+03   -0.26427E-03   -0.92614E-06 11488   0.560E-03    0.148E-02
DAV:  39    -0.830731666537E+03   -0.13976E-03   -0.22311E-05 10912   0.736E-03    0.119E-02
DAV:  40    -0.830731621947E+03    0.44590E-04   -0.11913E-05 10960   0.523E-03
   2 F= -.83073162E+03 E0= -.83068657E+03  d E =0.799808E+01  mag=     1.3592
       N       E                     dE             d eps       ncg     rms          rms(c)
DAV:   1    -0.835416015837E+03   -0.46843E+01   -0.64773E+02 18080   0.403E+01    0.130E+01
DAV:   2    -0.837692918426E+03   -0.22769E+01   -0.22036E+01 19824   0.674E+00    0.150E+01
DAV:   3    -0.837626624497E+03    0.66294E-01   -0.36737E+00 21568   0.380E+00    0.106E+01
DAV:   4    -0.837302929400E+03    0.32370E+00   -0.30579E+00 22272   0.262E+00    0.869E+00
DAV:   5    -0.837206644327E+03    0.96285E-01   -0.59059E-01 23840   0.143E+00    0.702E+00
DAV:   6    -0.837131783623E+03    0.74861E-01   -0.40763E-01 23168   0.126E+00    0.388E+00
DAV:   7    -0.837067199634E+03    0.64584E-01   -0.20697E-01 24512   0.989E-01    0.162E+00
DAV:   8    -0.837076021065E+03   -0.88214E-02   -0.57449E-02 22320   0.449E-01    0.148E+00
DAV:   9    -0.837077956225E+03   -0.19352E-02   -0.16114E-02 20176   0.238E-01    0.743E-01
DAV:  10    -0.837087985055E+03   -0.10029E-01   -0.24512E-03 21488   0.109E-01    0.611E-01
DAV:  11    -0.837096443341E+03   -0.84583E-02   -0.18825E-03 21008   0.922E-02    0.380E-01
DAV:  12    -0.837101438115E+03   -0.49948E-02   -0.14617E-03 20176   0.709E-02    0.141E-01
DAV:  13    -0.837103514760E+03   -0.20766E-02   -0.50718E-04 18032   0.403E-02    0.126E-01
DAV:  14    -0.837104270942E+03   -0.75618E-03   -0.15689E-04 12880   0.248E-02    0.968E-02
DAV:  15    -0.837103865957E+03    0.40498E-03   -0.45521E-04 17200   0.301E-02    0.719E-02
DAV:  16    -0.837100619712E+03    0.32462E-02   -0.43401E-04 17056   0.279E-02    0.698E-02
DAV:  17    -0.837100040830E+03    0.57888E-03   -0.92169E-05 11952   0.161E-02    0.630E-02
DAV:  18    -0.837097307957E+03    0.27329E-02   -0.20129E-04 13616   0.192E-02    0.487E-02
DAV:  19    -0.837092629123E+03    0.46788E-02   -0.18948E-04 13952   0.187E-02    0.432E-02
DAV:  20    -0.837094260234E+03   -0.16311E-02   -0.43485E-05 11696   0.122E-02    0.347E-02
DAV:  21    -0.837096859553E+03   -0.25993E-02   -0.35453E-05 11968   0.954E-03    0.318E-02
DAV:  22    -0.837099359246E+03   -0.24997E-02   -0.55130E-05 12800   0.965E-03    0.321E-02
DAV:  23    -0.837101972334E+03   -0.26131E-02   -0.41129E-05 12320   0.896E-03    0.272E-02
DAV:  24    -0.837106455851E+03   -0.44835E-02   -0.80585E-05 13744   0.104E-02    0.237E-02
DAV:  25    -0.837109118279E+03   -0.26624E-02   -0.37183E-05 12592   0.908E-03    0.216E-02
DAV:  26    -0.837110074131E+03   -0.95585E-03   -0.15342E-05 11392   0.657E-03    0.214E-02
DAV:  27    -0.837111086385E+03   -0.10123E-02   -0.13601E-05 10736   0.608E-03    0.191E-02
DAV:  28    -0.837111043093E+03    0.43292E-04   -0.90343E-06 10880   0.558E-03
   3 F= -.83711104E+03 E0= -.83706681E+03  d E =0.161866E+01  mag=     1.4805
       N       E                     dE             d eps       ncg     rms          rms(c)
DAV:   1    -0.839529713420E+03   -0.24186E+01   -0.22911E+02 17472   0.238E+01    0.766E+00
DAV:   2    -0.840536040549E+03   -0.10063E+01   -0.86119E+00 21856   0.472E+00    0.132E+01
DAV:   3    -0.839962062280E+03    0.57398E+00   -0.20493E+00 21744   0.253E+00    0.475E+00
DAV:   4    -0.839955055863E+03    0.70064E-02   -0.63370E-01 21728   0.138E+00    0.473E+00
DAV:   5    -0.839898551632E+03    0.56504E-01   -0.16256E-01 23376   0.813E-01    0.345E+00
DAV:   6    -0.839892301375E+03    0.62503E-02   -0.10996E-01 23008   0.684E-01    0.251E+00
DAV:   7    -0.839872979142E+03    0.19322E-01   -0.60951E-02 22784   0.542E-01    0.779E-01
DAV:   8    -0.839884724015E+03   -0.11745E-01   -0.12116E-02 23104   0.223E-01    0.482E-01
DAV:   9    -0.839891322840E+03   -0.65988E-02   -0.23943E-03 20160   0.106E-01    0.374E-01
DAV:  10    -0.839894856063E+03   -0.35332E-02   -0.16022E-03 19584   0.814E-02    0.288E-01
DAV:  11    -0.839898029271E+03   -0.31732E-02   -0.10298E-03 18320   0.675E-02    0.193E-01
DAV:  12    -0.839899326559E+03   -0.12973E-02   -0.38639E-04 14208   0.408E-02    0.785E-02
DAV:  13    -0.839900507559E+03   -0.11810E-02   -0.83440E-05 11952   0.253E-02    0.500E-02
DAV:  14    -0.839901618110E+03   -0.11106E-02   -0.82455E-05 12800   0.167E-02    0.351E-02
DAV:  15    -0.839901770072E+03   -0.15196E-03   -0.78831E-05 12928   0.136E-02    0.333E-02
DAV:  16    -0.839901543440E+03    0.22663E-03   -0.29003E-05 11360   0.102E-02    0.304E-02
DAV:  17    -0.839901093325E+03    0.45012E-03   -0.47824E-05 12016   0.926E-03    0.327E-02
DAV:  18    -0.839898666857E+03    0.24265E-02   -0.14259E-04 13904   0.130E-02    0.254E-02
DAV:  19    -0.839897490983E+03    0.11759E-02   -0.39514E-05 12112   0.923E-03    0.220E-02
DAV:  20    -0.839897833070E+03   -0.34209E-03   -0.14009E-05 11168   0.709E-03    0.204E-02
DAV:  21    -0.839898754291E+03   -0.92122E-03   -0.18799E-05 11568   0.569E-03    0.197E-02
DAV:  22    -0.839899857202E+03   -0.11029E-02   -0.20303E-05 12064   0.592E-03    0.196E-02
DAV:  23    -0.839902400920E+03   -0.25437E-02   -0.21495E-05 12016   0.646E-03    0.169E-02
DAV:  24    -0.839905038432E+03   -0.26375E-02   -0.60993E-05 13392   0.839E-03    0.142E-02
DAV:  25    -0.839905195075E+03   -0.15664E-03   -0.12083E-05 11536   0.591E-03    0.129E-02
DAV:  26    -0.839905145979E+03    0.49096E-04   -0.66728E-06 11296   0.450E-03
   4 F= -.83990515E+03 E0= -.83986194E+03  d E =-.117544E+01  mag=     1.5669
       N       E                     dE             d eps       ncg     rms          rms(c)
DAV:   1    -0.840163840225E+03   -0.25865E+00   -0.13030E+02 17888   0.180E+01    0.566E+00
DAV:   2    -0.840901827295E+03   -0.73799E+00   -0.58239E+00 22624   0.429E+00    0.124E+01
DAV:   3    -0.840285434439E+03    0.61639E+00   -0.15766E+00 21472   0.213E+00    0.321E+00
DAV:   4    -0.840303544686E+03   -0.18110E-01   -0.29186E-01 21088   0.942E-01    0.330E+00
DAV:   5    -0.840278224839E+03    0.25320E-01   -0.62387E-02 22480   0.500E-01    0.247E+00
DAV:   6    -0.840281277888E+03   -0.30530E-02   -0.56000E-02 22816   0.493E-01    0.203E+00
DAV:   7    -0.840273484961E+03    0.77929E-02   -0.48784E-02 22528   0.452E-01    0.726E-01
DAV:   8    -0.840280758723E+03   -0.72738E-02   -0.12135E-02 23440   0.208E-01    0.540E-01
DAV:   9    -0.840285233806E+03   -0.44751E-02   -0.44683E-03 21984   0.123E-01    0.315E-01
DAV:  10    -0.840288029415E+03   -0.27956E-02   -0.11040E-03 20080   0.764E-02    0.157E-01
DAV:  11    -0.840291144641E+03   -0.31152E-02   -0.42400E-04 18112   0.524E-02    0.953E-02
DAV:  12    -0.840292315812E+03   -0.11712E-02   -0.13376E-04 11968   0.271E-02    0.634E-02
DAV:  13    -0.840293192420E+03   -0.87661E-03   -0.45987E-05 11312   0.187E-02    0.351E-02
DAV:  14    -0.840294133302E+03   -0.94088E-03   -0.41928E-05 12416   0.122E-02    0.267E-02
DAV:  15    -0.840294676440E+03   -0.54314E-03   -0.27174E-05 11552   0.982E-03    0.239E-02
DAV:  16    -0.840294848153E+03   -0.17171E-03   -0.29610E-05 12016   0.827E-03    0.211E-02
DAV:  17    -0.840294559872E+03    0.28828E-03   -0.34876E-05 11872   0.818E-03    0.208E-02
DAV:  18    -0.840292852915E+03    0.17070E-02   -0.94843E-05 13808   0.109E-02    0.165E-02
DAV:  19    -0.840292129315E+03    0.72360E-03   -0.26201E-05 12000   0.739E-03    0.151E-02
DAV:  20    -0.840292085549E+03    0.43766E-04   -0.18036E-05 11504   0.618E-03
   5 F= -.84029209E+03 E0= -.84024948E+03  d E =-.156238E+01  mag=     1.5648
       N       E                     dE             d eps       ncg     rms          rms(c)
DAV:   1    -0.840380788279E+03   -0.88659E-01   -0.16908E+01 18256   0.649E+00    0.246E+00
DAV:   2    -0.840553863142E+03   -0.17307E+00   -0.12258E+00 23744   0.201E+00    0.586E+00
DAV:   3    -0.840393990372E+03    0.15987E+00   -0.29035E-01 21408   0.104E+00    0.145E+00
DAV:   4    -0.840398504558E+03   -0.45142E-02   -0.74303E-02 22864   0.508E-01    0.151E+00
DAV:   5    -0.840394028423E+03    0.44761E-02   -0.19551E-02 21248   0.244E-01    0.951E-01
DAV:   6    -0.840393031354E+03    0.99707E-03   -0.59524E-03 20048   0.155E-01    0.578E-01
DAV:   7    -0.840393833441E+03   -0.80209E-03   -0.41842E-03 22080   0.136E-01    0.322E-01
DAV:   8    -0.840393904726E+03   -0.71285E-04   -0.16989E-03 21424   0.907E-02    0.249E-01
DAV:   9    -0.840393859144E+03    0.45583E-04   -0.73133E-04 15456   0.510E-02
   6 F= -.84039386E+03 E0= -.84035103E+03  d E =-.166416E+01  mag=     1.5755
       N       E                     dE             d eps       ncg     rms          rms(c)
DAV:   1    -0.840398108114E+03   -0.42034E-02   -0.46835E-01 18224   0.108E+00    0.399E-01
DAV:   2    -0.840403393897E+03   -0.52858E-02   -0.28714E-02 23456   0.311E-01    0.101E+00
DAV:   3    -0.840398725471E+03    0.46684E-02   -0.87400E-03 20528   0.173E-01    0.209E-01
DAV:   4    -0.840399240427E+03   -0.51496E-03   -0.14778E-03 19712   0.690E-02    0.202E-01
DAV:   5    -0.840399308801E+03   -0.68374E-04   -0.35859E-04 12752   0.352E-02    0.135E-01
DAV:   6    -0.840399550655E+03   -0.24185E-03   -0.16139E-04 11200   0.298E-02    0.978E-02
DAV:   7    -0.840400044881E+03   -0.49423E-03   -0.15211E-04 12496   0.269E-02    0.464E-02
DAV:   8    -0.840400147412E+03   -0.10253E-03   -0.46087E-05 11616   0.166E-02    0.317E-02
DAV:   9    -0.840400213905E+03   -0.66493E-04   -0.18592E-05 11040   0.857E-03
   7 F= -.84040021E+03 E0= -.84035752E+03  d E =-.167051E+01  mag=     1.5824
       N       E                     dE             d eps       ncg     rms          rms(c)
DAV:   1    -0.839793032122E+03    0.60712E+00   -0.35067E+02 17488   0.329E+01    0.116E+01
DAV:   2    -0.841476138555E+03   -0.16831E+01   -0.16436E+01 20784   0.600E+00    0.127E+01
DAV:   3    -0.841522870773E+03   -0.46732E-01   -0.38827E+00 23472   0.316E+00    0.982E+00
DAV:   4    -0.841356144804E+03    0.16673E+00   -0.30433E+00 23824   0.261E+00    0.950E+00
DAV:   5    -0.841207146550E+03    0.14900E+00   -0.70383E-01 23728   0.155E+00    0.675E+00
DAV:   6    -0.841021946324E+03    0.18520E+00   -0.33491E-01 23760   0.125E+00    0.188E+00
DAV:   7    -0.841031582657E+03   -0.96363E-02   -0.66834E-02 20560   0.467E-01    0.126E+00
DAV:   8    -0.841031002995E+03    0.57966E-03   -0.33974E-02 23456   0.360E-01    0.147E+00
DAV:   9    -0.841025917594E+03    0.50854E-02   -0.15829E-02 22960   0.264E-01    0.667E-01
DAV:  10    -0.841024260954E+03    0.16566E-02   -0.47584E-03 22624   0.172E-01    0.439E-01
DAV:  11    -0.841023661582E+03    0.59937E-03   -0.16057E-03 21696   0.928E-02    0.239E-01
DAV:  12    -0.841023450066E+03    0.21152E-03   -0.41603E-04 17744   0.498E-02    0.168E-01
DAV:  13    -0.841023135395E+03    0.31467E-03   -0.21119E-04 14128   0.278E-02    0.127E-01
DAV:  14    -0.841022568602E+03    0.56679E-03   -0.32269E-04 16592   0.311E-02    0.985E-02
DAV:  15    -0.841020612945E+03    0.19557E-02   -0.62329E-04 14976   0.294E-02    0.761E-02
DAV:  16    -0.841014938310E+03    0.56746E-02   -0.37399E-04 15040   0.231E-02    0.716E-02
DAV:  17    -0.841002813029E+03    0.12125E-01   -0.34051E-04 16656   0.252E-02    0.634E-02
DAV:  18    -0.840991895196E+03    0.10918E-01   -0.22865E-04 15376   0.203E-02    0.616E-02
DAV:  19    -0.840991817153E+03    0.78044E-04   -0.42183E-05 12496   0.108E-02
   8 F= -.84099182E+03 E0= -.84094606E+03  d E =-.591603E+00  mag=     1.5125
       N       E                     dE             d eps       ncg     rms          rms(c)
DAV:   1    -0.840982941462E+03    0.89537E-02   -0.11378E+01 17792   0.601E+00    0.202E+00
DAV:   2    -0.841033611877E+03   -0.50670E-01   -0.50599E-01 19008   0.103E+00    0.221E+00
DAV:   3    -0.841034147199E+03   -0.53532E-03   -0.70011E-02 22432   0.544E-01    0.145E+00
DAV:   4    -0.841035940735E+03   -0.17935E-02   -0.69143E-02 23360   0.469E-01    0.178E+00
DAV:   5    -0.841033077039E+03    0.28637E-02   -0.24517E-02 24192   0.329E-01    0.133E+00
DAV:   6    -0.841029485484E+03    0.35916E-02   -0.15387E-02 23568   0.273E-01    0.421E-01
DAV:   7    -0.841030974984E+03   -0.14895E-02   -0.37875E-03 22096   0.142E-01    0.196E-01
DAV:   8    -0.841031925464E+03   -0.95048E-03   -0.64033E-04 18064   0.601E-02    0.133E-01
DAV:   9    -0.841032594096E+03   -0.66863E-03   -0.10350E-04 11504   0.238E-02    0.106E-01
DAV:  10    -0.841034079783E+03   -0.14857E-02   -0.90474E-05 11520   0.205E-02    0.100E-01
DAV:  11    -0.841036189818E+03   -0.21100E-02   -0.82743E-05 12544   0.180E-02    0.421E-02
DAV:  12    -0.841037695344E+03   -0.15055E-02   -0.29933E-05 11760   0.120E-02    0.358E-02
DAV:  13    -0.841038696211E+03   -0.10009E-02   -0.15477E-05 11216   0.808E-03    0.347E-02
DAV:  14    -0.841039861736E+03   -0.11655E-02   -0.13339E-05 11680   0.642E-03    0.347E-02
DAV:  15    -0.841044432606E+03   -0.45709E-02   -0.10281E-04 14000   0.124E-02    0.303E-02
DAV:  16    -0.841047770829E+03   -0.33382E-02   -0.70418E-05 13680   0.112E-02    0.308E-02
DAV:  17    -0.841049599150E+03   -0.18283E-02   -0.35236E-05 12528   0.102E-02    0.281E-02
DAV:  18    -0.841050590362E+03   -0.99121E-03   -0.19068E-05 11840   0.842E-03    0.253E-02
DAV:  19    -0.841052314702E+03   -0.17243E-02   -0.40570E-05 13056   0.919E-03    0.209E-02
DAV:  20    -0.841052414630E+03   -0.99928E-04   -0.17924E-05 11984   0.788E-03
   9 F= -.84105241E+03 E0= -.84100698E+03  d E =-.652201E+00  mag=     1.3354
       N       E                     dE             d eps       ncg     rms          rms(c)
DAV:   1    -0.840510945952E+03    0.54137E+00   -0.21948E+02 17456   0.267E+01    0.842E+00
DAV:   2    -0.841616669955E+03   -0.11057E+01   -0.12522E+01 20080   0.522E+00    0.603E+00
DAV:   3    -0.841679094708E+03   -0.62425E-01   -0.11664E+00 21712   0.230E+00    0.668E+00
DAV:   4    -0.841503559129E+03    0.17554E+00   -0.35841E-01 21840   0.111E+00    0.285E+00
DAV:   5    -0.841534779953E+03   -0.31221E-01   -0.12540E-01 23920   0.765E-01    0.293E+00
DAV:   6    -0.841549297242E+03   -0.14517E-01   -0.17816E-01 23648   0.795E-01    0.278E+00
DAV:   7    -0.841516196383E+03    0.33101E-01   -0.65825E-02 23376   0.600E-01    0.814E-01
DAV:   8    -0.841515067976E+03    0.11284E-02   -0.14126E-02 23536   0.267E-01    0.417E-01
DAV:   9    -0.841515078229E+03   -0.10253E-04   -0.22692E-03 20144   0.106E-01    0.191E-01
DAV:  10    -0.841515077233E+03    0.99579E-06   -0.35684E-04 15680   0.464E-02
  10 F= -.84151508E+03 E0= -.84147222E+03  d E =-.462663E+00  mag=     1.3254
       N       E                     dE             d eps       ncg     rms          rms(c)
DAV:   1    -0.841514778229E+03    0.30000E-03   -0.19190E-01 18176   0.787E-01    0.229E-01
DAV:   2    -0.841516142550E+03   -0.13643E-02   -0.11241E-02 20816   0.172E-01    0.359E-01
DAV:   3    -0.841515740900E+03    0.40165E-03   -0.19511E-03 21536   0.865E-02    0.200E-01
DAV:   4    -0.841515681734E+03    0.59166E-04   -0.31231E-04 11632   0.357E-02    0.859E-02
DAV:   5    -0.841515799678E+03   -0.11794E-03   -0.12011E-04 11360   0.266E-02    0.970E-02
DAV:   6    -0.841515910586E+03   -0.11091E-03   -0.18153E-04 11088   0.281E-02    0.870E-02
DAV:   7    -0.841515997864E+03   -0.87277E-04   -0.10987E-04 11536   0.231E-02
  11 F= -.84151600E+03 E0= -.84147310E+03  d E =-.463583E+00  mag=     1.3269
       N       E                     dE             d eps       ncg     rms          rms(c)
DAV:   1    -0.841066234203E+03    0.44968E+00   -0.10453E+02 18256   0.188E+01    0.557E+00
DAV:   2    -0.841788049541E+03   -0.72182E+00   -0.62854E+00 22352   0.440E+00    0.968E+00
DAV:   3    -0.841457259497E+03    0.33079E+00   -0.10062E+00 22080   0.181E+00    0.340E+00
DAV:   4    -0.841461421249E+03   -0.41618E-02   -0.24088E-01 22096   0.878E-01    0.288E+00
DAV:   5    -0.841455849532E+03    0.55717E-02   -0.13470E-01 22208   0.639E-01    0.257E+00
DAV:   6    -0.841439548137E+03    0.16301E-01   -0.48044E-02 21600   0.460E-01    0.105E+00
DAV:   7    -0.841442814402E+03   -0.32663E-02   -0.18930E-02 21472   0.303E-01    0.771E-01
DAV:   8    -0.841440114473E+03    0.26999E-02   -0.64417E-03 22432   0.185E-01    0.298E-01
DAV:   9    -0.841440505446E+03   -0.39097E-03   -0.15484E-03 21728   0.835E-02    0.306E-01
DAV:  10    -0.841440265557E+03    0.23989E-03   -0.56018E-04 15152   0.529E-02    0.205E-01
DAV:  11    -0.841440030268E+03    0.23529E-03   -0.28128E-04 14784   0.395E-02    0.960E-02
DAV:  12    -0.841439947982E+03    0.82286E-04   -0.81592E-05 12160   0.220E-02
  12 F= -.84143995E+03 E0= -.84139949E+03  d E =0.760499E-01  mag=     1.3383
       N       E                     dE             d eps       ncg     rms          rms(c)
DAV:   1    -0.841515781770E+03   -0.75752E-01   -0.33551E+01 17952   0.105E+01    0.289E+00
DAV:   2    -0.841713987291E+03   -0.19821E+00   -0.18592E+00 21840   0.229E+00    0.483E+00
DAV:   3    -0.841638681184E+03    0.75306E-01   -0.25423E-01 21648   0.948E-01    0.194E+00
DAV:   4    -0.841638239542E+03    0.44164E-03   -0.55770E-02 20576   0.420E-01    0.134E+00
DAV:   5    -0.841643360617E+03   -0.51211E-02   -0.37457E-02 23424   0.355E-01    0.161E+00
DAV:   6    -0.841637100160E+03    0.62605E-02   -0.22118E-02 22448   0.297E-01    0.641E-01
DAV:   7    -0.841636962302E+03    0.13786E-03   -0.61087E-03 22848   0.185E-01    0.295E-01
DAV:   8    -0.841636652133E+03    0.31017E-03   -0.12221E-03 21680   0.811E-02    0.112E-01
DAV:   9    -0.841636635654E+03    0.16480E-04   -0.16527E-04 13696   0.248E-02
  13 F= -.84163664E+03 E0= -.84159480E+03  d E =-.120638E+00  mag=     1.3418
       N       E                     dE             d eps       ncg     rms          rms(c)
DAV:   1    -0.841633934474E+03    0.27177E-02   -0.32664E+01 17376   0.111E+01    0.290E+00
DAV:   2    -0.841761858877E+03   -0.12792E+00   -0.13739E+00 19568   0.180E+00    0.216E+00
DAV:   3    -0.841774032536E+03   -0.12174E-01   -0.10418E-01 22960   0.679E-01    0.228E+00
DAV:   4    -0.841761029993E+03    0.13003E-01   -0.88841E-02 22608   0.526E-01    0.171E+00
DAV:   5    -0.841762102126E+03   -0.10721E-02   -0.33537E-02 22672   0.370E-01    0.123E+00
DAV:   6    -0.841757328043E+03    0.47741E-02   -0.24171E-02 23712   0.300E-01    0.713E-01
DAV:   7    -0.841755487309E+03    0.18407E-02   -0.63220E-03 22800   0.171E-01    0.212E-01
DAV:   8    -0.841755357697E+03    0.12961E-03   -0.10850E-03 19456   0.676E-02    0.128E-01
DAV:   9    -0.841755277222E+03    0.80476E-04   -0.12858E-04 12352   0.353E-02
  14 F= -.84175528E+03 E0= -.84171251E+03  d E =-.118642E+00  mag=     1.3439
       N       E                     dE             d eps       ncg     rms          rms(c)
DAV:   1    -0.841730211452E+03    0.25146E-01   -0.13848E+01 17472   0.721E+00    0.188E+00
DAV:   2    -0.841783219932E+03   -0.53008E-01   -0.57761E-01 19616   0.116E+00    0.123E+00
DAV:   3    -0.841788214461E+03   -0.49945E-02   -0.37586E-02 23296   0.403E-01    0.142E+00
DAV:   4    -0.841782738356E+03    0.54761E-02   -0.28861E-02 22768   0.298E-01    0.929E-01
DAV:   5    -0.841782737336E+03    0.10203E-05   -0.86719E-03 22640   0.194E-01    0.555E-01
DAV:   6    -0.841781949076E+03    0.78826E-03   -0.62663E-03 23888   0.168E-01    0.436E-01
DAV:   7    -0.841781202525E+03    0.74655E-03   -0.25957E-03 20624   0.104E-01    0.154E-01
DAV:   8    -0.841781152285E+03    0.50239E-04   -0.43950E-04 14288   0.439E-02
  15 F= -.84178115E+03 E0= -.84173788E+03  d E =-.144517E+00  mag=     1.3425
       N       E                     dE             d eps       ncg     rms          rms(c)
DAV:   1    -0.841684225280E+03    0.96977E-01   -0.44122E+01 17312   0.123E+01    0.331E+00
DAV:   2    -0.841919190118E+03   -0.23496E+00   -0.20371E+00 20496   0.223E+00    0.549E+00
DAV:   3    -0.841823968223E+03    0.95222E-01   -0.24583E-01 21440   0.918E-01    0.171E+00
DAV:   4    -0.841845174152E+03   -0.21206E-01   -0.81559E-02 21600   0.503E-01    0.259E+00
DAV:   5    -0.841839804633E+03    0.53695E-02   -0.52075E-02 23360   0.465E-01    0.215E+00
DAV:   6    -0.841827751993E+03    0.12053E-01   -0.43357E-02 22368   0.395E-01    0.841E-01
DAV:   7    -0.841826526287E+03    0.12257E-02   -0.10298E-02 23536   0.234E-01    0.269E-01
DAV:   8    -0.841827186215E+03   -0.65993E-03   -0.13521E-03 19984   0.796E-02    0.248E-01
DAV:   9    -0.841827424254E+03   -0.23804E-03   -0.22955E-04 12464   0.339E-02    0.216E-01
DAV:  10    -0.841827880243E+03   -0.45599E-03   -0.25137E-04 12864   0.327E-02    0.182E-01
DAV:  11    -0.841828352696E+03   -0.47245E-03   -0.24475E-04 12496   0.369E-02    0.772E-02
DAV:  12    -0.841828563722E+03   -0.21103E-03   -0.67696E-05 11808   0.229E-02    0.342E-02
DAV:  13    -0.841828698235E+03   -0.13451E-03   -0.21334E-05 11152   0.103E-02    0.250E-02
DAV:  14    -0.841828786765E+03   -0.88530E-04   -0.83004E-06 11536   0.566E-03
  16 F= -.84182879E+03 E0= -.84178522E+03  d E =-.476345E-01  mag=     1.3265
       N       E                     dE             d eps       ncg     rms          rms(c)
DAV:   1    -0.841825918974E+03    0.27793E-02   -0.27182E+00 17424   0.306E+00    0.848E-01
DAV:   2    -0.841841841096E+03   -0.15922E-01   -0.12769E-01 21232   0.578E-01    0.146E+00
DAV:   3    -0.841834209466E+03    0.76316E-02   -0.17199E-02 21280   0.248E-01    0.396E-01
DAV:   4    -0.841836129151E+03   -0.19197E-02   -0.55955E-03 21376   0.139E-01    0.626E-01
DAV:   5    -0.841835517504E+03    0.61165E-03   -0.31640E-03 20064   0.112E-01    0.462E-01
DAV:   6    -0.841835175057E+03    0.34245E-03   -0.16039E-03 20320   0.873E-02    0.181E-01
DAV:   7    -0.841835200437E+03   -0.25380E-04   -0.44498E-04 16928   0.491E-02
  17 F= -.84183520E+03 E0= -.84179168E+03  d E =-.540482E-01  mag=     1.3233
       N       E                     dE             d eps       ncg     rms          rms(c)
DAV:   1    -0.841802441951E+03    0.32733E-01   -0.18775E+01 17296   0.812E+00    0.196E+00
DAV:   2    -0.841875083767E+03   -0.72642E-01   -0.71409E-01 22032   0.142E+00    0.227E+00
DAV:   3    -0.841865747233E+03    0.93365E-02   -0.94441E-02 22160   0.591E-01    0.182E+00
DAV:   4    -0.841856024651E+03    0.97226E-02   -0.25429E-02 20400   0.283E-01    0.640E-01
DAV:   5    -0.841860229312E+03   -0.42047E-02   -0.14181E-02 22576   0.236E-01    0.101E+00
DAV:   6    -0.841856919934E+03    0.33094E-02   -0.11925E-02 23264   0.220E-01    0.422E-01
DAV:   7    -0.841856553944E+03    0.36599E-03   -0.22086E-03 21744   0.109E-01    0.188E-01
DAV:   8    -0.841856388259E+03    0.16569E-03   -0.42128E-04 16816   0.467E-02    0.674E-02
DAV:   9    -0.841856395760E+03   -0.75018E-05   -0.95550E-05 11360   0.222E-02
  18 F= -.84185640E+03 E0= -.84181341E+03  d E =-.211953E-01  mag=     1.3203
       N       E                     dE             d eps       ncg     rms          rms(c)
DAV:   1    -0.841855567844E+03    0.82041E-03   -0.10302E+00 17488   0.191E+00    0.449E-01
DAV:   2    -0.841859484545E+03   -0.39167E-02   -0.37845E-02 21520   0.324E-01    0.537E-01
DAV:   3    -0.841858907241E+03    0.57730E-03   -0.47736E-03 21840   0.138E-01    0.412E-01
DAV:   4    -0.841858467465E+03    0.43978E-03   -0.13835E-03 16960   0.700E-02    0.151E-01
DAV:   5    -0.841858710479E+03   -0.24301E-03   -0.82279E-04 12560   0.596E-02    0.250E-01
DAV:   6    -0.841858508065E+03    0.20241E-03   -0.70696E-04 12176   0.566E-02    0.942E-02
DAV:   7    -0.841858488887E+03    0.19178E-04   -0.11309E-04 11072   0.295E-02
  19 F= -.84185849E+03 E0= -.84181536E+03  d E =-.232885E-01  mag=     1.3187
       N       E                     dE             d eps       ncg     rms          rms(c)
DAV:   1    -0.841832102233E+03    0.26406E-01   -0.91868E+00 17440   0.594E+00    0.150E+00
DAV:   2    -0.841885466179E+03   -0.53364E-01   -0.55446E-01 18848   0.113E+00    0.149E+00
DAV:   3    -0.841885308263E+03    0.15792E-03   -0.42146E-02 22624   0.406E-01    0.132E+00
DAV:   4    -0.841879996972E+03    0.53113E-02   -0.16899E-02 21056   0.231E-01    0.655E-01
DAV:   5    -0.841881757330E+03   -0.17604E-02   -0.71325E-03 23008   0.174E-01    0.693E-01
DAV:   6    -0.841879878310E+03    0.18790E-02   -0.60504E-03 23120   0.160E-01    0.328E-01
DAV:   7    -0.841879626487E+03    0.25182E-03   -0.15534E-03 21616   0.873E-02    0.136E-01
DAV:   8    -0.841879538007E+03    0.88480E-04   -0.26184E-04 12352   0.373E-02
  20 F= -.84187954E+03 E0= -.84183642E+03  d E =-.210491E-01  mag=     1.3178
       N       E                     dE             d eps       ncg     rms          rms(c)
DAV:   1    -0.841869652653E+03    0.99738E-02   -0.24506E+00 17536   0.308E+00    0.774E-01
DAV:   2    -0.841883357325E+03   -0.13705E-01   -0.14691E-01 18880   0.581E-01    0.701E-01
DAV:   3    -0.841883647870E+03   -0.29054E-03   -0.87027E-03 22672   0.200E-01    0.613E-01
DAV:   4    -0.841882576633E+03    0.10712E-02   -0.46441E-03 20576   0.132E-01    0.412E-01
DAV:   5    -0.841882692913E+03   -0.11628E-03   -0.18679E-03 19056   0.890E-02    0.322E-01
DAV:   6    -0.841882328795E+03    0.36412E-03   -0.14748E-03 14720   0.806E-02    0.177E-01
DAV:   7    -0.841882230016E+03    0.98779E-04   -0.41699E-04 12576   0.467E-02
  21 F= -.84188223E+03 E0= -.84183916E+03  d E =-.237411E-01  mag=     1.3172
       N       E                     dE             d eps       ncg     rms          rms(c)
DAV:   1    -0.841874218061E+03    0.81107E-02   -0.77679E+00 17344   0.533E+00    0.115E+00
DAV:   2    -0.841901890490E+03   -0.27672E-01   -0.27600E-01 20640   0.867E-01    0.117E+00
DAV:   3    -0.841901270868E+03    0.61962E-03   -0.28397E-02 23248   0.354E-01    0.107E+00
DAV:   4    -0.841897154321E+03    0.41165E-02   -0.11858E-02 21440   0.211E-01    0.437E-01
DAV:   5    -0.841898246478E+03   -0.10922E-02   -0.44015E-03 22144   0.141E-01    0.536E-01
DAV:   6    -0.841897823296E+03    0.42318E-03   -0.43314E-03 22800   0.132E-01    0.341E-01
DAV:   7    -0.841897207835E+03    0.61546E-03   -0.11661E-03 20624   0.831E-02    0.536E-02
DAV:   8    -0.841897217758E+03   -0.99235E-05   -0.14015E-04 11792   0.272E-02
  22 F= -.84189722E+03 E0= -.84185395E+03  d E =-.149877E-01  mag=     1.3133
       N       E                     dE             d eps       ncg     rms          rms(c)
DAV:   1    -0.841897189451E+03    0.18383E-04   -0.23543E-02 18448   0.293E-01    0.760E-02
DAV:   2    -0.841897284426E+03   -0.94975E-04   -0.94113E-04 20672   0.539E-02    0.100E-01
DAV:   3    -0.841897264509E+03    0.19917E-04   -0.15284E-04 11440   0.239E-02    0.563E-02
DAV:   4    -0.841897246790E+03    0.17719E-04   -0.47799E-05 11136   0.163E-02    0.358E-02
DAV:   5    -0.841897244508E+03    0.22822E-05   -0.21053E-05 11360   0.106E-02    0.348E-02
DAV:   6    -0.841897231808E+03    0.12699E-04   -0.16042E-05 11248   0.773E-03
  23 F= -.84189723E+03 E0= -.84185391E+03  d E =-.150018E-01  mag=     1.3102
       N       E                     dE             d eps       ncg     rms          rms(c)
DAV:   1    -0.841892281055E+03    0.49635E-02   -0.62618E+00 17344   0.476E+00    0.959E-01
DAV:   2    -0.841914954767E+03   -0.22674E-01   -0.21914E-01 20688   0.741E-01    0.122E+00
DAV:   3    -0.841911570196E+03    0.33846E-02   -0.26815E-02 21984   0.310E-01    0.833E-01
DAV:   4    -0.841909832013E+03    0.17382E-02   -0.77891E-03 19904   0.153E-01    0.389E-01
DAV:   5    -0.841910394498E+03   -0.56249E-03   -0.32476E-03 20512   0.117E-01    0.448E-01
DAV:   6    -0.841909699305E+03    0.69519E-03   -0.24573E-03 20304   0.101E-01    0.224E-01
DAV:   7    -0.841909554986E+03    0.14432E-03   -0.76569E-04 17312   0.562E-02    0.110E-01
DAV:   8    -0.841909481261E+03    0.73725E-04   -0.12829E-04 11536   0.263E-02
  24 F= -.84190948E+03 E0= -.84186606E+03  d E =-.122495E-01  mag=     1.3057
       N       E                     dE             d eps       ncg     rms          rms(c)
DAV:   1    -0.841907075623E+03    0.24794E-02   -0.13813E+00 17424   0.223E+00    0.458E-01
DAV:   2    -0.841912069192E+03   -0.49936E-02   -0.48166E-02 20592   0.346E-01    0.561E-01
DAV:   3    -0.841911410735E+03    0.65846E-03   -0.59366E-03 21360   0.147E-01    0.415E-01
DAV:   4    -0.841910943423E+03    0.46731E-03   -0.18213E-03 17024   0.743E-02    0.180E-01
DAV:   5    -0.841911062128E+03   -0.11871E-03   -0.71590E-04 11568   0.566E-02    0.208E-01
DAV:   6    -0.841910852823E+03    0.20931E-03   -0.53657E-04 11504   0.513E-02    0.968E-02
DAV:   7    -0.841910770164E+03    0.82659E-04   -0.14449E-04 11040   0.284E-02
  25 F= -.84191077E+03 E0= -.84186731E+03  d E =-.135384E-01  mag=     1.3013
       N       E                     dE             d eps       ncg     rms          rms(c)
DAV:   1    -0.841902781949E+03    0.80709E-02   -0.33012E+00 17344   0.371E+00    0.788E-01
DAV:   2    -0.841920127641E+03   -0.17346E-01   -0.18174E-01 18208   0.683E-01    0.731E-01
DAV:   3    -0.841920418274E+03   -0.29063E-03   -0.12184E-02 22368   0.221E-01    0.725E-01
DAV:   4    -0.841918729023E+03    0.16893E-02   -0.41528E-03 19648   0.115E-01    0.285E-01
DAV:   5    -0.841919062787E+03   -0.33376E-03   -0.10830E-03 17856   0.720E-02    0.299E-01
DAV:   6    -0.841918833094E+03    0.22969E-03   -0.12043E-03 14384   0.769E-02    0.179E-01
DAV:   7    -0.841918716448E+03    0.11665E-03   -0.52585E-04 11408   0.482E-02    0.803E-02
DAV:   8    -0.841918680861E+03    0.35586E-04   -0.10440E-04 10896   0.244E-02
  26 F= -.84191868E+03 E0= -.84187510E+03  d E =-.791070E-02  mag=     1.2961
       N       E                     dE             d eps       ncg     rms          rms(c)
DAV:   1    -0.841902455312E+03    0.16261E-01   -0.40047E+00 17344   0.409E+00    0.867E-01
DAV:   2    -0.841923395409E+03   -0.20940E-01   -0.22017E-01 18240   0.753E-01    0.793E-01
DAV:   3    -0.841923764200E+03   -0.36879E-03   -0.14041E-02 22304   0.242E-01    0.789E-01
DAV:   4    -0.841921805726E+03    0.19585E-02   -0.47269E-03 20064   0.124E-01    0.312E-01
DAV:   5    -0.841922147577E+03   -0.34185E-03   -0.11764E-03 18896   0.747E-02    0.304E-01
DAV:   6    -0.841921952402E+03    0.19517E-03   -0.13151E-03 15696   0.805E-02    0.202E-01
DAV:   7    -0.841921799947E+03    0.15246E-03   -0.66086E-04 11584   0.533E-02    0.912E-02
DAV:   8    -0.841921755557E+03    0.44390E-04   -0.12814E-04 10720   0.261E-02
  27 F= -.84192176E+03 E0= -.84187807E+03  d E =-.109854E-01  mag=     1.2907
       N       E                     dE             d eps       ncg     rms          rms(c)
DAV:   1    -0.841912972334E+03    0.88276E-02   -0.38204E+00 17344   0.388E+00    0.788E-01
DAV:   2    -0.841928885091E+03   -0.15913E-01   -0.16639E-01 18880   0.664E-01    0.799E-01
DAV:   3    -0.841929431744E+03   -0.54665E-03   -0.14675E-02 22688   0.229E-01    0.725E-01
DAV:   4    -0.841927602684E+03    0.18291E-02   -0.79242E-03 19712   0.163E-01    0.416E-01
DAV:   5    -0.841928000559E+03   -0.39787E-03   -0.27680E-03 19808   0.106E-01    0.439E-01
DAV:   6    -0.841927279304E+03    0.72126E-03   -0.16438E-03 18208   0.876E-02    0.149E-01
DAV:   7    -0.841927241226E+03    0.38078E-04   -0.31923E-04 12736   0.440E-02
  28 F= -.84192724E+03 E0= -.84188341E+03  d E =-.548567E-02  mag=     1.2840
       N       E                     dE             d eps       ncg     rms          rms(c)
DAV:   1    -0.841925793593E+03    0.14857E-02   -0.34899E-01 17456   0.117E+00    0.246E-01
DAV:   2    -0.841927147753E+03   -0.13542E-02   -0.15183E-02 18832   0.202E-01    0.209E-01
DAV:   3    -0.841927279743E+03   -0.13199E-03   -0.10645E-03 18912   0.632E-02    0.209E-01
DAV:   4    -0.841927105798E+03    0.17394E-03   -0.73573E-04 11184   0.521E-02    0.141E-01
DAV:   5    -0.841927117829E+03   -0.12030E-04   -0.26382E-04 10384   0.340E-02    0.118E-01
DAV:   6    -0.841927083300E+03    0.34528E-04   -0.15434E-04 11040   0.290E-02
  29 F= -.84192708E+03 E0= -.84188329E+03  d E =-.532774E-02  mag=     1.2781
       N       E                     dE             d eps       ncg     rms          rms(c)
DAV:   1    -0.841924488076E+03    0.26298E-02   -0.20208E+00 17328   0.277E+00    0.517E-01
DAV:   2    -0.841931690857E+03   -0.72028E-02   -0.74979E-02 18656   0.430E-01    0.442E-01
DAV:   3    -0.841931737305E+03   -0.46448E-04   -0.44921E-03 21872   0.134E-01    0.458E-01
DAV:   4    -0.841931119329E+03    0.61798E-03   -0.18375E-03 18096   0.784E-02    0.199E-01
DAV:   5    -0.841931336858E+03   -0.21753E-03   -0.72265E-04 14112   0.572E-02    0.224E-01
DAV:   6    -0.841931278035E+03    0.58823E-04   -0.74935E-04 11136   0.570E-02
  30 F= -.84193128E+03 E0= -.84188745E+03  d E =-.419473E-02  mag=     1.2725
       N       E                     dE             d eps       ncg     rms          rms(c)
DAV:   1    -0.841874284690E+03    0.57052E-01   -0.18176E+01 17296   0.829E+00    0.156E+00
DAV:   2    -0.841939119525E+03   -0.64835E-01   -0.68180E-01 19072   0.130E+00    0.135E+00
DAV:   3    -0.841940696843E+03   -0.15773E-02   -0.47552E-02 22112   0.412E-01    0.146E+00
DAV:   4    -0.841933539704E+03    0.71571E-02   -0.20331E-02 20832   0.251E-01    0.587E-01
DAV:   5    -0.841936210688E+03   -0.26710E-02   -0.91403E-03 21584   0.192E-01    0.775E-01
DAV:   6    -0.841934629101E+03    0.15816E-02   -0.72321E-03 21792   0.172E-01    0.413E-01
DAV:   7    -0.841934297957E+03    0.33114E-03   -0.23475E-03 21760   0.107E-01    0.182E-01
DAV:   8    -0.841934226768E+03    0.71189E-04   -0.44558E-04 15728   0.481E-02
  31 F= -.84193423E+03 E0= -.84189058E+03  d E =-.714347E-02  mag=     1.2657
       N       E                     dE             d eps       ncg     rms          rms(c)
DAV:   1    -0.841929796562E+03    0.45014E-02   -0.16513E+00 17312   0.251E+00    0.463E-01
DAV:   2    -0.841935632393E+03   -0.58358E-02   -0.60690E-02 18528   0.386E-01    0.465E-01
DAV:   3    -0.841935713545E+03   -0.81153E-04   -0.49716E-03 21984   0.129E-01    0.453E-01
DAV:   4    -0.841935027881E+03    0.68566E-03   -0.16994E-03 17376   0.748E-02    0.164E-01
DAV:   5    -0.841935369887E+03   -0.34201E-03   -0.83161E-04 13552   0.603E-02    0.254E-01
DAV:   6    -0.841935218125E+03    0.15176E-03   -0.79087E-04 11968   0.578E-02    0.116E-01
DAV:   7    -0.841935211948E+03    0.61774E-05   -0.19644E-04 10608   0.364E-02
  32 F= -.84193521E+03 E0= -.84189158E+03  d E =-.812865E-02  mag=     1.2613
       N       E                     dE             d eps       ncg     rms          rms(c)
DAV:   1    -0.841936009030E+03   -0.79091E-03   -0.87253E-01 17376   0.182E+00    0.429E-01
DAV:   2    -0.841940637133E+03   -0.46281E-02   -0.41606E-02 22480   0.348E-01    0.670E-01
DAV:   3    -0.841939070902E+03    0.15662E-02   -0.63627E-03 21264   0.161E-01    0.345E-01
DAV:   4    -0.841938847568E+03    0.22333E-03   -0.14981E-03 17616   0.688E-02    0.166E-01
DAV:   5    -0.841938971673E+03   -0.12411E-03   -0.51877E-04 11152   0.457E-02    0.176E-01
DAV:   6    -0.841938934010E+03    0.37663E-04   -0.36895E-04 10928   0.437E-02
  33 F= -.84193893E+03 E0= -.84189527E+03  d E =-.372206E-02  mag=     1.2586
       N       E                     dE             d eps       ncg     rms          rms(c)
DAV:   1    -0.841938350782E+03    0.62089E-03   -0.29067E-01 17680   0.105E+00    0.246E-01
DAV:   2    -0.841939815279E+03   -0.14645E-02   -0.13569E-02 22208   0.197E-01    0.363E-01
DAV:   3    -0.841939422588E+03    0.39269E-03   -0.21363E-03 20160   0.913E-02    0.211E-01
DAV:   4    -0.841939314737E+03    0.10785E-03   -0.57201E-04 12912   0.427E-02    0.993E-02
DAV:   5    -0.841939360875E+03   -0.46138E-04   -0.17712E-04 11136   0.283E-02    0.100E-01
DAV:   6    -0.841939352840E+03    0.80358E-05   -0.11767E-04 11088   0.251E-02
  34 F= -.84193935E+03 E0= -.84189570E+03  d E =-.414089E-02  mag=     1.2566
       N       E                     dE             d eps       ncg     rms          rms(c)
DAV:   1    -0.841939009978E+03    0.35090E-03   -0.69282E-01 17488   0.170E+00    0.418E-01
DAV:   2    -0.841941861417E+03   -0.28514E-02   -0.31016E-02 18336   0.287E-01    0.394E-01
DAV:   3    -0.841942027225E+03   -0.16581E-03   -0.28981E-03 22576   0.998E-02    0.346E-01
DAV:   4    -0.841941735753E+03    0.29147E-03   -0.16834E-03 18544   0.752E-02    0.232E-01
DAV:   5    -0.841941685231E+03    0.50523E-04   -0.40670E-04 11744   0.434E-02    0.103E-01
DAV:   6    -0.841941658770E+03    0.26461E-04   -0.19997E-04 11568   0.355E-02
  35 F= -.84194166E+03 E0= -.84189798E+03  d E =-.230593E-02  mag=     1.2546
       N       E                     dE             d eps       ncg     rms          rms(c)
DAV:   1    -0.841939442554E+03    0.22427E-02   -0.71891E-01 17392   0.173E+00    0.428E-01
DAV:   2    -0.841942423978E+03   -0.29814E-02   -0.32438E-02 18224   0.293E-01    0.412E-01
DAV:   3    -0.841942595142E+03   -0.17116E-03   -0.35333E-03 22032   0.107E-01    0.362E-01
DAV:   4    -0.841942316199E+03    0.27894E-03   -0.23419E-03 17440   0.878E-02    0.257E-01
DAV:   5    -0.841942356987E+03   -0.40788E-04   -0.82086E-04 10672   0.601E-02    0.229E-01
DAV:   6    -0.841942191506E+03    0.16548E-03   -0.53604E-04 11696   0.511E-02    0.885E-02
DAV:   7    -0.841942158891E+03    0.32615E-04   -0.12854E-04 10816   0.268E-02
  36 F= -.84194216E+03 E0= -.84189832E+03  d E =-.280605E-02  mag=     1.2524
       N       E                     dE             d eps       ncg     rms          rms(c)
DAV:   1    -0.841939034603E+03    0.31569E-02   -0.10655E+00 17376   0.211E+00    0.507E-01
DAV:   2    -0.841944764415E+03   -0.57298E-02   -0.61136E-02 18304   0.386E-01    0.415E-01
DAV:   3    -0.841945174119E+03   -0.40970E-03   -0.37317E-03 23008   0.120E-01    0.421E-01
DAV:   4    -0.841944570813E+03    0.60331E-03   -0.22629E-03 19312   0.895E-02    0.260E-01
DAV:   5    -0.841944615102E+03   -0.44289E-04   -0.77592E-04 12640   0.596E-02    0.221E-01
DAV:   6    -0.841944413918E+03    0.20118E-03   -0.61940E-04 11264   0.509E-02    0.825E-02
DAV:   7    -0.841944391690E+03    0.22228E-04   -0.14248E-04 11360   0.264E-02
  37 F= -.84194439E+03 E0= -.84190049E+03  d E =-.223280E-02  mag=     1.2500
       N       E                     dE             d eps       ncg     rms          rms(c)
DAV:   1    -0.841942028034E+03    0.23859E-02   -0.53766E-01 17456   0.150E+00    0.363E-01
DAV:   2    -0.841944907503E+03   -0.28795E-02   -0.30933E-02 18400   0.276E-01    0.289E-01
DAV:   3    -0.841945131427E+03   -0.22392E-03   -0.18448E-03 21648   0.857E-02    0.301E-01
DAV:   4    -0.841944819728E+03    0.31170E-03   -0.11568E-03 17040   0.649E-02    0.186E-01
DAV:   5    -0.841944857919E+03   -0.38190E-04   -0.45593E-04 11168   0.449E-02    0.170E-01
DAV:   6    -0.841944736350E+03    0.12157E-03   -0.35734E-04 10960   0.381E-02    0.552E-02
DAV:   7    -0.841944725137E+03    0.11213E-04   -0.60341E-05 11088   0.188E-02
  38 F= -.84194473E+03 E0= -.84190075E+03  d E =-.256625E-02  mag=     1.2476
       N       E                     dE             d eps       ncg     rms          rms(c)
DAV:   1    -0.841942944408E+03    0.17919E-02   -0.86926E-01 17360   0.186E+00    0.408E-01
DAV:   2    -0.841947880523E+03   -0.49361E-02   -0.43691E-02 21296   0.362E-01    0.666E-01
DAV:   3    -0.841946183049E+03    0.16975E-02   -0.58057E-03 20880   0.156E-01    0.298E-01
DAV:   4    -0.841946141773E+03    0.41276E-04   -0.16788E-03 17968   0.786E-02    0.212E-01
DAV:   5    -0.841946160271E+03   -0.18498E-04   -0.48605E-04 10880   0.483E-02    0.177E-01
DAV:   6    -0.841946139455E+03    0.20816E-04   -0.32152E-04 10928   0.414E-02
  39 F= -.84194614E+03 E0= -.84190208E+03  d E =-.141432E-02  mag=     1.2462
       N       E                     dE             d eps       ncg     rms          rms(c)
DAV:   1    -0.841946085434E+03    0.74837E-04   -0.15494E-02 18272   0.250E-01    0.638E-02
DAV:   2    -0.841946222703E+03   -0.13727E-03   -0.81920E-04 19840   0.524E-02    0.120E-01
DAV:   3    -0.841946159805E+03    0.62898E-04   -0.15502E-04 10800   0.254E-02    0.410E-02
DAV:   4    -0.841946171693E+03   -0.11887E-04   -0.46757E-05 10528   0.155E-02    0.444E-02
DAV:   5    -0.841946174041E+03   -0.23481E-05   -0.13294E-05 11120   0.979E-03    0.277E-02
DAV:   6    -0.841946182013E+03   -0.79722E-05   -0.96832E-06 10864   0.773E-03
  40 F= -.84194618E+03 E0= -.84190214E+03  d E =-.145688E-02  mag=     1.2449
       N       E                     dE             d eps       ncg     rms          rms(c)
DAV:   1    -0.841945386652E+03    0.78739E-03   -0.64912E-01 17376   0.158E+00    0.343E-01
DAV:   2    -0.841947806059E+03   -0.24194E-02   -0.26446E-02 19312   0.255E-01    0.268E-01
DAV:   3    -0.841948065520E+03   -0.25946E-03   -0.24601E-03 21360   0.109E-01    0.364E-01
DAV:   4    -0.841947506100E+03    0.55942E-03   -0.79715E-04 13440   0.556E-02    0.115E-01
DAV:   5    -0.841947697824E+03   -0.19172E-03   -0.32006E-04 14512   0.425E-02    0.156E-01
DAV:   6    -0.841947706914E+03   -0.90900E-05   -0.39101E-04 10496   0.401E-02
  41 F= -.84194771E+03 E0= -.84190362E+03  d E =-.152490E-02  mag=     1.2437
       N       E                     dE             d eps       ncg     rms          rms(c)
DAV:   1    -0.841940113636E+03    0.75842E-02   -0.23608E+00 17296   0.301E+00    0.656E-01
DAV:   2    -0.841949122786E+03   -0.90092E-02   -0.96401E-02 19264   0.487E-01    0.520E-01
DAV:   3    -0.841950067462E+03   -0.94468E-03   -0.94437E-03 22656   0.212E-01    0.703E-01
DAV:   4    -0.841947875616E+03    0.21918E-02   -0.31805E-03 19120   0.110E-01    0.219E-01
DAV:   5    -0.841948512021E+03   -0.63641E-03   -0.11777E-03 17888   0.795E-02    0.292E-01
DAV:   6    -0.841948515996E+03   -0.39747E-05   -0.13529E-03 14688   0.739E-02    0.234E-01
DAV:   7    -0.841948312883E+03    0.20311E-03   -0.51719E-04 13616   0.498E-02    0.459E-02
DAV:   8    -0.841948351644E+03   -0.38760E-04   -0.84274E-05 10896   0.214E-02
  42 F= -.84194835E+03 E0= -.84190412E+03  d E =-.216963E-02  mag=     1.2428
       N       E                     dE             d eps       ncg     rms          rms(c)
DAV:   1    -0.841948036827E+03    0.27606E-03   -0.12490E-01 17504   0.692E-01    0.148E-01
DAV:   2    -0.841948475923E+03   -0.43910E-03   -0.50553E-03 19280   0.111E-01    0.128E-01
DAV:   3    -0.841948539802E+03   -0.63879E-04   -0.51052E-04 14752   0.491E-02    0.165E-01
DAV:   4    -0.841948444920E+03    0.94882E-04   -0.17095E-04 10496   0.271E-02    0.528E-02
DAV:   5    -0.841948491667E+03   -0.46747E-04   -0.66628E-05 11200   0.199E-02    0.766E-02
DAV:   6    -0.841948493195E+03   -0.15285E-05   -0.86961E-05 11168   0.192E-02
  43 F= -.84194849E+03 E0= -.84190426E+03  d E =-.231118E-02  mag=     1.2423
       N       E                     dE             d eps       ncg     rms          rms(c)
DAV:   1    -0.841946066855E+03    0.24248E-02   -0.68451E-01 17280   0.166E+00    0.381E-01
DAV:   2    -0.841949470981E+03   -0.34041E-02   -0.36725E-02 19504   0.314E-01    0.361E-01
DAV:   3    -0.841949559766E+03   -0.88785E-04   -0.31978E-03 22000   0.107E-01    0.383E-01
DAV:   4    -0.841949102190E+03    0.45758E-03   -0.84174E-04 14624   0.520E-02    0.124E-01
DAV:   5    -0.841949244312E+03   -0.14212E-03   -0.29894E-04 14384   0.407E-02    0.150E-01
DAV:   6    -0.841949193284E+03    0.51028E-04   -0.44310E-04 11392   0.444E-02
  44 F= -.84194919E+03 E0= -.84190506E+03  d E =-.700089E-03  mag=     1.2417
       N       E                     dE             d eps       ncg     rms          rms(c)
DAV:   1    -0.841949097386E+03    0.14693E-03   -0.65610E-03 18096   0.165E-01    0.495E-02
DAV:   2    -0.841949155569E+03   -0.58183E-04   -0.41129E-04 15936   0.380E-02    0.858E-02
DAV:   3    -0.841949133092E+03    0.22477E-04   -0.11116E-04 11072   0.232E-02    0.367E-02
DAV:   4    -0.841949134436E+03   -0.13442E-05   -0.33264E-05 10704   0.126E-02    0.266E-02
DAV:   5    -0.841949135938E+03   -0.15018E-05   -0.59203E-06 11296   0.611E-03    0.166E-02
DAV:   6    -0.841949142601E+03   -0.66627E-05   -0.45916E-06 11136   0.421E-03
  45 F= -.84194914E+03 E0= -.84190487E+03  d E =-.649405E-03  mag=     1.2413
       N       E                     dE             d eps       ncg     rms          rms(c)
DAV:   1    -0.841949144204E+03   -0.82663E-05   -0.25961E-03 17984   0.103E-01    0.260E-02
DAV:   2    -0.841949162940E+03   -0.18736E-04   -0.13442E-04 12944   0.210E-02    0.314E-02
DAV:   3    -0.841949163742E+03   -0.80126E-06   -0.26590E-05 11040   0.141E-02    0.254E-02
DAV:   4    -0.841949163587E+03    0.15437E-06   -0.66517E-06 10992   0.559E-03    0.842E-03
DAV:   5    -0.841949165910E+03   -0.23225E-05   -0.21641E-06 10896   0.318E-03    0.928E-03
DAV:   6    -0.841949169885E+03   -0.39750E-05   -0.14267E-06 11152   0.253E-03
  46 F= -.84194917E+03 E0= -.84190491E+03  d E =-.676690E-03  mag=     1.2410
       N       E                     dE             d eps       ncg     rms          rms(c)
DAV:   1    -0.841947799156E+03    0.13668E-02   -0.46385E-01 17312   0.137E+00    0.288E-01
DAV:   2    -0.841950048356E+03   -0.22492E-02   -0.22305E-02 20160   0.243E-01    0.348E-01
DAV:   3    -0.841949867666E+03    0.18069E-03   -0.23166E-03 19776   0.978E-02    0.261E-01
DAV:   4    -0.841949631192E+03    0.23647E-03   -0.91100E-04 12288   0.570E-02    0.136E-01
DAV:   5    -0.841949693618E+03   -0.62426E-04   -0.26605E-04 10752   0.363E-02    0.133E-01
DAV:   6    -0.841949659028E+03    0.34590E-04   -0.20680E-04 11008   0.334E-02
  47 F= -.84194966E+03 E0= -.84190541E+03  d E =-.489143E-03  mag=     1.2409
       N       E                     dE             d eps       ncg     rms          rms(c)
DAV:   1    -0.841949631766E+03    0.61852E-04   -0.79151E-04 18144   0.597E-02    0.266E-02
DAV:   2    -0.841949658853E+03   -0.27087E-04   -0.90434E-05 11200   0.214E-02    0.707E-02
DAV:   3    -0.841949637228E+03    0.21625E-04   -0.48658E-05 10944   0.168E-02    0.161E-02
DAV:   4    -0.841949638930E+03   -0.17019E-05   -0.79795E-06 10800   0.647E-03    0.182E-02
DAV:   5    -0.841949638871E+03    0.59430E-07   -0.29689E-06 10992   0.441E-03    0.120E-02
DAV:   6    -0.841949638796E+03    0.74710E-07   -0.14166E-06 11024   0.267E-03
  48 F= -.84194964E+03 E0= -.84190537E+03  d E =-.468911E-03  mag=     1.2409
       N       E                     dE             d eps       ncg     rms          rms(c)
DAV:   1    -0.841949640038E+03   -0.11672E-05   -0.53711E-04 17328   0.470E-02    0.105E-02
DAV:   2    -0.841949642103E+03   -0.20653E-05   -0.23408E-05 11008   0.899E-03    0.139E-02
DAV:   3    -0.841949641787E+03    0.31589E-06   -0.58172E-06  9744   0.695E-03    0.837E-03
DAV:   4    -0.841949642394E+03   -0.60647E-06   -0.15837E-06  9920   0.279E-03    0.497E-03
DAV:   5    -0.841949642064E+03    0.33012E-06   -0.47055E-07  9552   0.167E-03    0.393E-03
DAV:   6    -0.841949642321E+03   -0.25748E-06   -0.26575E-07 10272   0.120E-03
  49 F= -.84194964E+03 E0= -.84190538E+03  d E =-.472436E-03  mag=     1.2409
       N       E                     dE             d eps       ncg     rms          rms(c)
DAV:   1    -0.841949061348E+03    0.58072E-03   -0.25474E-01 17312   0.101E+00    0.218E-01
DAV:   2    -0.841950125103E+03   -0.10638E-02   -0.11381E-02 18464   0.165E-01    0.202E-01
DAV:   3    -0.841950199741E+03   -0.74638E-04   -0.86822E-04 16528   0.631E-02    0.192E-01
DAV:   4    -0.841950064994E+03    0.13475E-03   -0.60364E-04 10960   0.496E-02    0.125E-01
DAV:   5    -0.841950121128E+03   -0.56134E-04   -0.27814E-04 10432   0.333E-02    0.126E-01
DAV:   6    -0.841950062017E+03    0.59111E-04   -0.15901E-04 10912   0.276E-02
  50 F= -.84195006E+03 E0= -.84190581E+03  d E =-.419696E-03  mag=     1.2410
       N       E                     dE             d eps       ncg     rms          rms(c)
DAV:   1    -0.841948236184E+03    0.18849E-02   -0.47979E-01 17280   0.139E+00    0.301E-01
DAV:   2    -0.841950321160E+03   -0.20850E-02   -0.21719E-02 18528   0.229E-01    0.312E-01
DAV:   3    -0.841950365527E+03   -0.44367E-04   -0.19239E-03 19568   0.913E-02    0.260E-01
DAV:   4    -0.841950148509E+03    0.21702E-03   -0.12052E-03 12800   0.676E-02    0.182E-01
DAV:   5    -0.841950224284E+03   -0.75774E-04   -0.49146E-04 10512   0.448E-02    0.172E-01
DAV:   6    -0.841950129585E+03    0.94699E-04   -0.29213E-04 10800   0.383E-02
  51 F= -.84195013E+03 E0= -.84190584E+03  d E =-.487264E-03  mag=     1.2412
       N       E                     dE             d eps       ncg     rms          rms(c)
DAV:   1    -0.841949878143E+03    0.34614E-03   -0.12060E-01 17312   0.706E-01    0.149E-01
DAV:   2    -0.841950355760E+03   -0.47762E-03   -0.50042E-03 18608   0.118E-01    0.176E-01
DAV:   3    -0.841950319308E+03    0.36452E-04   -0.40639E-04 14016   0.414E-02    0.107E-01
DAV:   4    -0.841950312929E+03    0.63796E-05   -0.20004E-04 10704   0.309E-02    0.903E-02
DAV:   5    -0.841950316811E+03   -0.38827E-05   -0.99224E-05 10896   0.212E-02    0.746E-02
DAV:   6    -0.841950312660E+03    0.41514E-05   -0.84862E-05 10576   0.174E-02
  52 F= -.84195031E+03 E0= -.84190593E+03  d E =-.183075E-03  mag=     1.2414
