    #         X           Y           Z       CHARGE      MIN DIST   ATOMIC VOL
 --------------------------------------------------------------------------------
    1    0.055546    3.209514   27.012722    0.775721     0.208574    20.462785
    2    9.476993    3.192778    6.919303    0.770408     0.223109    21.601415
    3    3.233056    3.209514   27.012722    0.775721     0.208576    20.462785
    4    6.299483    3.192778    6.919303    0.770408     0.223107    21.601415
    5    6.410575    3.209514   27.012722    0.775721     0.208572    20.462785
    6    3.121964    3.192778    6.919303    0.770408     0.223111    21.601415
    7    9.531157    5.600565    7.065992    0.872659     0.212109    43.935041
    8    0.001382    0.801727   26.866033    0.844777     0.233981    45.394518
    9    6.353647    5.600565    7.065992    0.872659     0.212108    43.935041
   10    3.178892    0.801727   26.866033    0.844777     0.233981    45.394518
   11    3.176128    5.600565    7.065992    0.872659     0.212109    43.935041
   12    6.356411    0.801727   26.866033    0.844777     0.233982    45.394518
   13    8.558542    1.963788    6.544399    0.736099     0.128573   298.446929
   14    0.973997    4.438504   27.387683    0.706792     0.133458   296.300022
   15    5.381032    1.963788    6.544399    0.736099     0.128571   298.446929
   16    4.151507    4.438504   27.387683    0.706792     0.133455   296.300022
   17    2.203523    1.963788    6.544399    0.736099     0.128568   298.446929
   18    7.329016    4.438504   27.387683    0.706792     0.133453   296.300022
   19    1.581372    4.898733    8.975556   15.059794     0.925609    11.530359
   20    4.758882    4.898733    8.975556   15.059794     0.925609    11.530359
   21    7.936392    4.898733    8.975556   15.059794     0.925609    11.530359
   22    9.521872    1.713394    8.979293   15.694883     0.884956    12.876406
   23    3.166843    1.713394    8.979293   15.694883     0.884956    12.876406
   24    6.344353    1.713394    8.979293   15.694883     0.884956    12.876406
   25    1.588760    1.608441   12.153463   15.048566     0.897130    11.252905
   26    4.766279    1.608441   12.153463   15.048566     0.897130    11.252905
   27    7.943789    1.608441   12.153463   15.048566     0.897130    11.252905
   28    9.530728    4.819434   12.167221   15.054854     0.931102    11.075688
   29    3.175708    4.819434   12.167221   15.054854     0.931102    11.075688
   30    6.353218    4.819434   12.167221   15.054854     0.931102    11.075688
   31    1.588760    4.801719   15.365510   15.099602     0.945730    11.651338
   32    4.766269    4.801719   15.365510   15.099602     0.945733    11.651338
   33    7.943779    4.801719   15.365510   15.099602     0.945730    11.651338
   34    0.000000    1.600573   15.365510   14.998792     0.946403    10.904286
   35    3.177510    1.600573   15.365510   14.998792     0.946403    10.904286
   36    6.355029    1.600573   15.365510   14.998792     0.946403    10.904286
   37    1.588760    1.600573   18.566629   15.087525     0.945883    11.613153
   38    4.766269    1.600573   18.566629   15.087525     0.945881    11.613153
   39    7.943779    1.600573   18.566629   15.087525     0.945878    11.613153
   40    0.000000    4.801719   18.566629   15.016713     0.943173    10.978054
   41    3.177510    4.801719   18.566629   15.016713     0.943173    10.978054
   42    6.355029    4.801719   18.566629   15.016713     0.943173    10.978054
   43    1.588750    4.793851   21.778732   15.058489     0.897244    11.375880
   44    4.766260    4.793851   21.778732   15.058489     0.897244    11.375880
   45    7.943779    4.793851   21.778732   15.058489     0.897244    11.375880
   46    0.001811    1.582858   21.764918   15.104369     0.969665    11.208384
   47    3.179321    1.582858   21.764918   15.104369     0.969665    11.208384
   48    6.356831    1.582858   21.764918   15.104369     0.969665    11.208384
   49    1.596147    1.503559   24.956583   15.127594     0.919251    11.060761
   50    4.773657    1.503559   24.956583   15.127594     0.919254    11.060761
   51    7.951167    1.503559   24.956583   15.127594     0.919256    11.060761
   52    0.010667    4.688898   24.952846   15.682408     0.936111    12.921188
   53    3.188186    4.688898   24.952846   15.682408     0.936111    12.921188
   54    6.365696    4.688898   24.952846   15.682408     0.936111    12.921188
   55    9.525809    4.766205    7.573035    6.739994     0.433457    10.603400
   56    3.170780    4.766205    7.573035    6.739994     0.433457    10.603400
   57    6.348290    4.766205    7.573035    6.739994     0.433457    10.603400
   58    1.579485    0.476343    8.742812    6.622484     0.608000     9.209534
   59    4.756994    0.476343    8.742812    6.622484     0.608001     9.209534
   60    7.934514    0.476343    8.742812    6.622484     0.607999     9.209534
   61    9.526467    4.946628   10.190568    7.161527     0.867120    11.914126
   62    3.171438    4.946628   10.190568    7.161527     0.867117    11.914126
   63    6.348947    4.946628   10.190568    7.161527     0.867115    11.914126
   64    1.579065    2.930252    9.007600    6.676890     0.612084     8.836441
   65    4.756584    2.930252    9.007600    6.676890     0.612086     8.836441
   66    7.934094    2.930252    9.007600    6.676890     0.612085     8.836441
   67    0.000372    1.541569   10.923278    7.106472     0.871548    11.878630
   68    3.177882    1.541569   10.923278    7.106472     0.871548    11.878630
   69    6.355391    1.541569   10.923278    7.106472     0.871548    11.878630
   70    1.587444    3.587006   12.130478    6.904998     0.850071    10.082772
   71    4.764954    3.587006   12.130478    6.904998     0.850072    10.082772
   72    7.942464    3.587006   12.130478    6.904998     0.850074    10.082772
   73    9.532396    1.625952   13.385573    7.062782     0.874791    11.472386
   74    3.177367    1.625952   13.385573    7.062782     0.874791    11.472386
   75    6.354877    1.625952   13.385573    7.062782     0.874790    11.472386
   76    1.587406    6.041747   12.191282    6.878170     0.833153    10.030267
   77    4.764916    6.041747   12.191282    6.878170     0.833156    10.030267
   78    7.942435    6.041747   12.191282    6.878170     0.833151    10.030267
   79    0.000000    4.801719   14.138155    7.031641     0.878929    11.091049
   80    3.177510    4.801719   14.138155    7.040140     0.878932    11.213591
   81    6.355029    4.801719   14.138155    7.035891     0.878927    11.152320
   82    1.588760    0.373215   15.365510    6.949168     0.862458    10.456819
   83    4.766269    0.373215   15.365510    6.943483     0.862458    10.372897
   84    7.943779    0.373215   15.365510    6.950572     0.862458    10.475912
   85    0.000000    4.801719   16.592864    7.004802     0.852389    10.818455
   86    3.177510    4.801719   16.592864    7.013434     0.852388    10.945510
   87    6.355029    4.801719   16.592864    7.009118     0.852388    10.881982
   88    1.588760    2.827931   15.365510    6.889333     0.862458     9.919788
   89    4.766269    2.827931   15.365510    6.885648     0.862458     9.866242
   90    7.943779    2.827931   15.365510    6.893019     0.862458     9.973335
   91    0.000000    1.600573   17.339275    7.025300     0.859660    10.963214
   92    3.177510    1.600573   17.339275    7.033297     0.859659    11.081416
   93    6.355029    1.600573   17.339275    7.029298     0.859659    11.022315
   94    1.588760    3.574361   18.566629    6.966195     0.896394    10.441197
   95    4.766269    3.574361   18.566629    6.960477     0.896396    10.356581
   96    7.943779    3.574361   18.566629    6.968098     0.896394    10.467754
   97    0.000000    1.600573   19.793983    7.010365     0.838826    10.939695
   98    3.177510    1.600573   19.793983    7.018940     0.838829    11.058418
   99    6.355029    1.600573   19.793983    7.014653     0.838823    10.999056
  100    1.588760    6.029077   18.566629    6.895572     0.896394    10.122694
  101    4.766269    6.029077   18.566629    6.890701     0.896396    10.050922
  102    7.943779    6.029077   18.566629    6.897237     0.896394    10.145518
  103    0.000143    4.776340   20.546565    7.020565     0.830630    11.172975
  104    3.177662    4.776340   20.546565    7.020565     0.830629    11.172975
  105    6.355172    4.776340   20.546565    7.020565     0.830630    11.172975
  106    1.590104    0.360545   21.740856    6.887929     0.814689    10.151506
  107    4.767623    0.360545   21.740856    6.887929     0.814693    10.151506
  108    7.945133    0.360545   21.740856    6.887929     0.814691    10.151506
  109    9.532167    4.860723   23.008860    7.056127     0.794337    11.591022
  110    3.177148    4.860723   23.008860    7.056127     0.794337    11.591022
  111    6.354657    4.860723   23.008860    7.056127     0.794337    11.591022
  112    1.590075    2.815286   21.801717    6.893136     0.856835    10.144130
  113    4.767585    2.815286   21.801717    6.893136     0.856833    10.144130
  114    7.945095    2.815286   21.801717    6.893136     0.856830    10.144130
  115    0.006072    1.455664   23.741570    7.101354     0.800598    11.626170
  116    3.183592    1.455664   23.741570    7.101354     0.800604    11.626170
  117    6.361101    1.455664   23.741570    7.101354     0.800601    11.626170
  118    1.598445    3.472040   24.924539    6.667658     0.640785     8.951606
  119    4.775955    3.472040   24.924539    6.667658     0.640786     8.951606
  120    7.953474    3.472040   24.924539    6.667658     0.640784     8.951606
  121    0.006730    1.636087   26.359103    6.761323     0.430311    11.557957
  122    3.184249    1.636087   26.359103    6.761323     0.430311    11.557957
  123    6.361759    1.636087   26.359103    6.761323     0.430311    11.557957
  124    1.598025    5.925949   25.189326    6.693778     0.652536     9.532550
  125    4.775545    5.925949   25.189326    6.693778     0.652538     9.532550
  126    7.953054    5.925949   25.189326    6.693778     0.652537     9.532550
  127    9.481359    2.185742    6.795146    6.615172     0.482207    16.183031
  128    0.051180    4.216550   27.136879    6.624136     0.482370    17.271065
  129    3.126339    2.185742    6.795146    6.615172     0.482207    16.183031
  130    6.406200    4.216550   27.136879    6.624136     0.482370    17.271065
  131    6.303849    2.185742    6.795146    6.615172     0.482207    16.183031
  132    3.228690    4.216550   27.136879    6.624136     0.482370    17.271065
 --------------------------------------------------------------------------------
    VACUUM CHARGE:               0.0000
    VACUUM VOLUME:               0.0000
    NUMBER OF ELECTRONS:      1098.0000
