  132  132    1    2
  0.2617585E+02  0.9532539E-09  0.6402292E-09  0.5661490E-08  0.5000000E-15
  1.000000000000000E-004
  CAR 
 IrO2-110	                               
   1098     26    736
 
  0.0000000E+00  0.0000000E+00  0.0000000E+00  0.2083333E-01
      1        -92.181284      -92.181283   1.000000   1.000000
      2        -92.180187      -92.180187   1.000000   1.000000
      3        -92.179592      -92.179592   1.000000   1.000000
      4        -92.179319      -92.179319   1.000000   1.000000
      5        -92.179319      -92.179319   1.000000   1.000000
      6        -92.178464      -92.178464   1.000000   1.000000
      7        -92.178464      -92.178464   1.000000   1.000000
      8        -92.178242      -92.178241   1.000000   1.000000
      9        -92.178242      -92.178241   1.000000   1.000000
     10        -92.165128      -92.165128   1.000000   1.000000
     11        -92.163424      -92.163424   1.000000   1.000000
     12        -92.163424      -92.163424   1.000000   1.000000
     13        -92.158731      -92.158731   1.000000   1.000000
     14        -92.157091      -92.157091   1.000000   1.000000
     15        -92.157091      -92.157091   1.000000   1.000000
     16        -92.143845      -92.143845   1.000000   1.000000
     17        -92.142178      -92.142178   1.000000   1.000000
     18        -92.142178      -92.142178   1.000000   1.000000
     19        -92.136528      -92.136528   1.000000   1.000000
     20        -92.135156      -92.135156   1.000000   1.000000
     21        -92.134566      -92.134565   1.000000   1.000000
     22        -92.134566      -92.134565   1.000000   1.000000
     23        -92.133789      -92.133789   1.000000   1.000000
     24        -92.133789      -92.133789   1.000000   1.000000
     25        -91.918004      -91.918004   1.000000   1.000000
     26        -91.916362      -91.916361   1.000000   1.000000
     27        -91.916362      -91.916361   1.000000   1.000000
     28        -91.866413      -91.866413   1.000000   1.000000
     29        -91.864721      -91.864721   1.000000   1.000000
     30        -91.864721      -91.864721   1.000000   1.000000
     31        -91.844237      -91.844237   1.000000   1.000000
     32        -91.842595      -91.842594   1.000000   1.000000
     33        -91.842595      -91.842594   1.000000   1.000000
     34        -91.791522      -91.791522   1.000000   1.000000
     35        -91.789830      -91.789829   1.000000   1.000000
     36        -91.789830      -91.789829   1.000000   1.000000
     37        -49.127479      -49.127478   1.000000   1.000000
     38        -49.123751      -49.123751   1.000000   1.000000
     39        -49.123751      -49.123751   1.000000   1.000000
     40        -49.121842      -49.121842   1.000000   1.000000
     41        -49.116274      -49.116274   1.000000   1.000000
     42        -49.116274      -49.116274   1.000000   1.000000
     43        -49.110557      -49.110557   1.000000   1.000000
     44        -49.106946      -49.106945   1.000000   1.000000
     45        -49.104886      -49.104886   1.000000   1.000000
     46        -49.104886      -49.104886   1.000000   1.000000
     47        -49.102331      -49.102330   1.000000   1.000000
     48        -49.102331      -49.102330   1.000000   1.000000
     49        -49.102065      -49.102065   1.000000   1.000000
     50        -49.101388      -49.101388   1.000000   1.000000
     51        -49.101388      -49.101388   1.000000   1.000000
     52        -49.094301      -49.094301   1.000000   1.000000
     53        -49.094301      -49.094301   1.000000   1.000000
     54        -49.091200      -49.091200   1.000000   1.000000
     55        -49.091200      -49.091200   1.000000   1.000000
     56        -49.087938      -49.087938   1.000000   1.000000
     57        -49.087938      -49.087938   1.000000   1.000000
     58        -49.087155      -49.087155   1.000000   1.000000
     59        -49.082860      -49.082860   1.000000   1.000000
     60        -49.082351      -49.082350   1.000000   1.000000
     61        -49.082351      -49.082350   1.000000   1.000000
     62        -49.079122      -49.079122   1.000000   1.000000
     63        -49.079122      -49.079122   1.000000   1.000000
     64        -49.069726      -49.069726   1.000000   1.000000
     65        -49.069726      -49.069726   1.000000   1.000000
     66        -49.066962      -49.066962   1.000000   1.000000
     67        -49.066962      -49.066962   1.000000   1.000000
     68        -49.065801      -49.065801   1.000000   1.000000
     69        -49.060125      -49.060124   1.000000   1.000000
     70        -49.060125      -49.060124   1.000000   1.000000
     71        -49.052317      -49.052317   1.000000   1.000000
     72        -49.052317      -49.052317   1.000000   1.000000
     73        -49.047585      -49.047585   1.000000   1.000000
     74        -49.047585      -49.047585   1.000000   1.000000
     75        -49.044090      -49.044089   1.000000   1.000000
     76        -49.044090      -49.044089   1.000000   1.000000
     77        -49.018983      -49.018983   1.000000   1.000000
     78        -49.016190      -49.016190   1.000000   1.000000
     79        -49.012094      -49.012094   1.000000   1.000000
     80        -49.001646      -49.001646   1.000000   1.000000
     81        -48.990755      -48.990755   1.000000   1.000000
     82        -48.976517      -48.976517   1.000000   1.000000
     83        -48.973451      -48.973450   1.000000   1.000000
     84        -48.967503      -48.967503   1.000000   1.000000
     85        -48.889736      -48.889735   1.000000   1.000000
     86        -48.877985      -48.877984   1.000000   1.000000
     87        -48.877985      -48.877984   1.000000   1.000000
     88        -48.875171      -48.875171   1.000000   1.000000
     89        -48.875171      -48.875171   1.000000   1.000000
     90        -48.866121      -48.866121   1.000000   1.000000
     91        -48.863038      -48.863037   1.000000   1.000000
     92        -48.857049      -48.857049   1.000000   1.000000
     93        -48.857049      -48.857049   1.000000   1.000000
     94        -48.855339      -48.855339   1.000000   1.000000
     95        -48.855339      -48.855339   1.000000   1.000000
     96        -48.853359      -48.853359   1.000000   1.000000
     97        -48.853359      -48.853359   1.000000   1.000000
     98        -48.851212      -48.851212   1.000000   1.000000
     99        -48.844348      -48.844348   1.000000   1.000000
    100        -48.844293      -48.844293   1.000000   1.000000
    101        -48.840453      -48.840453   1.000000   1.000000
    102        -48.840453      -48.840453   1.000000   1.000000
    103        -48.834476      -48.834475   1.000000   1.000000
    104        -48.834476      -48.834475   1.000000   1.000000
    105        -48.832608      -48.832608   1.000000   1.000000
    106        -48.832608      -48.832608   1.000000   1.000000
    107        -48.829386      -48.829386   1.000000   1.000000
    108        -48.826419      -48.826418   1.000000   1.000000
    109        -48.819565      -48.819565   1.000000   1.000000
    110        -48.819565      -48.819565   1.000000   1.000000
    111        -48.818454      -48.818454   1.000000   1.000000
    112        -48.818165      -48.818164   1.000000   1.000000
    113        -48.818165      -48.818164   1.000000   1.000000
    114        -48.808769      -48.808769   1.000000   1.000000
    115        -48.808769      -48.808769   1.000000   1.000000
    116        -48.803670      -48.803670   1.000000   1.000000
    117        -48.801367      -48.801367   1.000000   1.000000
    118        -48.801367      -48.801367   1.000000   1.000000
    119        -48.796647      -48.796647   1.000000   1.000000
    120        -48.790775      -48.790774   1.000000   1.000000
    121        -48.790775      -48.790774   1.000000   1.000000
    122        -48.782669      -48.782669   1.000000   1.000000
    123        -48.782669      -48.782669   1.000000   1.000000
    124        -48.776603      -48.776602   1.000000   1.000000
    125        -48.752003      -48.752002   1.000000   1.000000
    126        -48.743307      -48.743306   1.000000   1.000000
    127        -48.743307      -48.743306   1.000000   1.000000
    128        -48.729800      -48.729799   1.000000   1.000000
    129        -48.722907      -48.722907   1.000000   1.000000
    130        -48.717038      -48.717038   1.000000   1.000000
    131        -48.717038      -48.717038   1.000000   1.000000
    132        -48.707622      -48.707622   1.000000   1.000000
    133        -48.701841      -48.701841   1.000000   1.000000
    134        -48.697142      -48.697141   1.000000   1.000000
    135        -48.697142      -48.697141   1.000000   1.000000
    136        -48.633908      -48.633907   1.000000   1.000000
    137        -48.623418      -48.623418   1.000000   1.000000
    138        -48.623418      -48.623418   1.000000   1.000000
    139        -48.555195      -48.555195   1.000000   1.000000
    140        -48.545383      -48.545383   1.000000   1.000000
    141        -48.545383      -48.545383   1.000000   1.000000
    142        -48.480459      -48.480458   1.000000   1.000000
    143        -48.470641      -48.470640   1.000000   1.000000
    144        -48.470641      -48.470640   1.000000   1.000000
    145        -22.081833      -22.081833   1.000000   1.000000
    146        -21.996083      -21.996082   1.000000   1.000000
    147        -21.917689      -21.917689   1.000000   1.000000
    148        -21.917689      -21.917689   1.000000   1.000000
    149        -21.831885      -21.831885   1.000000   1.000000
    150        -21.831885      -21.831885   1.000000   1.000000
    151        -20.574519      -20.574519   1.000000   1.000000
    152        -20.488990      -20.488990   1.000000   1.000000
    153        -20.384116      -20.384116   1.000000   1.000000
    154        -20.384116      -20.384116   1.000000   1.000000
    155        -20.297390      -20.297389   1.000000   1.000000
    156        -20.297390      -20.297389   1.000000   1.000000
    157        -19.720941      -19.720941   1.000000   1.000000
    158        -19.569522      -19.569522   1.000000   1.000000
    159        -19.383107      -19.383107   1.000000   1.000000
    160        -19.234836      -19.234836   1.000000   1.000000
    161        -19.157047      -19.157047   1.000000   1.000000
    162        -19.100076      -19.100076   1.000000   1.000000
    163        -19.043792      -19.043792   1.000000   1.000000
    164        -18.918252      -18.918251   1.000000   1.000000
    165        -18.918252      -18.918251   1.000000   1.000000
    166        -18.870580      -18.870579   1.000000   1.000000
    167        -18.847241      -18.847241   1.000000   1.000000
    168        -18.847241      -18.847241   1.000000   1.000000
    169        -18.744111      -18.744111   1.000000   1.000000
    170        -18.744111      -18.744111   1.000000   1.000000
    171        -18.683294      -18.683293   1.000000   1.000000
    172        -18.646148      -18.646148   1.000000   1.000000
    173        -18.646148      -18.646148   1.000000   1.000000
    174        -18.612147      -18.612147   1.000000   1.000000
    175        -18.572738      -18.572737   1.000000   1.000000
    176        -18.572738      -18.572737   1.000000   1.000000
    177        -18.508404      -18.508404   1.000000   1.000000
    178        -18.508404      -18.508404   1.000000   1.000000
    179        -18.490796      -18.490796   1.000000   1.000000
    180        -18.490796      -18.490796   1.000000   1.000000
    181        -18.433781      -18.433780   1.000000   1.000000
    182        -18.433781      -18.433780   1.000000   1.000000
    183        -18.391334      -18.391334   1.000000   1.000000
    184        -18.347526      -18.347526   1.000000   1.000000
    185        -18.347526      -18.347526   1.000000   1.000000
    186        -18.331804      -18.331804   1.000000   1.000000
    187        -18.330529      -18.330528   1.000000   1.000000
    188        -18.330529      -18.330528   1.000000   1.000000
    189        -18.284989      -18.284989   1.000000   1.000000
    190        -18.284989      -18.284989   1.000000   1.000000
    191        -18.271507      -18.271507   1.000000   1.000000
    192        -18.271507      -18.271507   1.000000   1.000000
    193        -18.161031      -18.161031   1.000000   1.000000
    194        -18.161031      -18.161031   1.000000   1.000000
    195        -18.124527      -18.124526   1.000000   1.000000
    196        -18.124527      -18.124526   1.000000   1.000000
    197        -18.118943      -18.118942   1.000000   1.000000
    198        -18.118943      -18.118942   1.000000   1.000000
    199        -18.088742      -18.088742   1.000000   1.000000
    200        -18.088742      -18.088742   1.000000   1.000000
    201        -18.057269      -18.057268   1.000000   1.000000
    202        -18.057269      -18.057268   1.000000   1.000000
    203        -18.050087      -18.050087   1.000000   1.000000
    204        -18.050087      -18.050087   1.000000   1.000000
    205        -18.021480      -18.021480   1.000000   1.000000
    206        -18.021480      -18.021480   1.000000   1.000000
    207        -18.008683      -18.008683   1.000000   1.000000
    208        -18.008683      -18.008683   1.000000   1.000000
    209        -17.988757      -17.988757   1.000000   1.000000
    210        -17.988757      -17.988757   1.000000   1.000000
    211        -17.956643      -17.956643   1.000000   1.000000
    212        -17.956643      -17.956643   1.000000   1.000000
    213        -17.955053      -17.955052   1.000000   1.000000
    214        -17.907922      -17.907922   1.000000   1.000000
    215        -17.801929      -17.801929   1.000000   1.000000
    216        -17.781082      -17.781082   1.000000   1.000000
    217        -17.709548      -17.709547   1.000000   1.000000
    218        -17.691024      -17.691023   1.000000   1.000000
    219        -17.681530      -17.681530   1.000000   1.000000
    220        -17.641847      -17.641847   1.000000   1.000000
    221        -17.601931      -17.601931   1.000000   1.000000
    222        -17.564051      -17.564051   1.000000   1.000000
    223         -9.881494       -9.881494   1.000000   1.000000
    224         -9.881494       -9.881494   1.000000   1.000000
    225         -9.795977       -9.795977   1.000000   1.000000
    226         -9.795977       -9.795977   1.000000   1.000000
    227         -9.700855       -9.700855   1.000000   1.000000
    228         -9.615398       -9.615398   1.000000   1.000000
    229         -8.408607       -8.408607   1.000000   1.000000
    230         -8.339448       -8.339448   1.000000   1.000000
    231         -8.258611       -8.258610   1.000000   1.000000
    232         -8.248786       -8.248786   1.000000   1.000000
    233         -8.232868       -8.232868   1.000000   1.000000
    234         -8.213807       -8.213807   1.000000   1.000000
    235         -8.182821       -8.182820   1.000000   1.000000
    236         -8.113043       -8.113043   1.000000   1.000000
    237         -8.105187       -8.105187   1.000000   1.000000
    238         -8.105187       -8.105187   1.000000   1.000000
    239         -8.021958       -8.021957   1.000000   1.000000
    240         -8.021958       -8.021957   1.000000   1.000000
    241         -7.989945       -7.989945   1.000000   1.000000
    242         -7.955038       -7.955037   1.000000   1.000000
    243         -7.515263       -7.515263   1.000000   1.000000
    244         -7.448281       -7.448280   1.000000   1.000000
    245         -7.275240       -7.275240   1.000000   1.000000
    246         -7.275240       -7.275240   1.000000   1.000000
    247         -7.255870       -7.255870   1.000000   1.000000
    248         -7.255870       -7.255870   1.000000   1.000000
    249         -7.237013       -7.237013   1.000000   1.000000
    250         -7.237013       -7.237013   1.000000   1.000000
    251         -7.221825       -7.221824   1.000000   1.000000
    252         -7.221825       -7.221824   1.000000   1.000000
    253         -7.205178       -7.205178   1.000000   1.000000
    254         -7.205178       -7.205178   1.000000   1.000000
    255         -7.192051       -7.192050   1.000000   1.000000
    256         -7.192051       -7.192050   1.000000   1.000000
    257         -7.149149       -7.149148   1.000000   1.000000
    258         -7.149149       -7.149148   1.000000   1.000000
    259         -7.096357       -7.096356   1.000000   1.000000
    260         -7.096357       -7.096356   1.000000   1.000000
    261         -7.035524       -7.035524   1.000000   1.000000
    262         -7.035524       -7.035524   1.000000   1.000000
    263         -7.004709       -7.004709   1.000000   1.000000
    264         -7.004709       -7.004709   1.000000   1.000000
    265         -6.823439       -6.823439   1.000000   1.000000
    266         -6.801991       -6.801991   1.000000   1.000000
    267         -6.801991       -6.801991   1.000000   1.000000
    268         -6.764678       -6.764678   1.000000   1.000000
    269         -6.764678       -6.764678   1.000000   1.000000
    270         -6.673798       -6.673797   1.000000   1.000000
    271         -6.625859       -6.625858   1.000000   1.000000
    272         -6.603026       -6.603026   1.000000   1.000000
    273         -6.594119       -6.594119   1.000000   1.000000
    274         -6.569420       -6.569420   1.000000   1.000000
    275         -6.549820       -6.549820   1.000000   1.000000
    276         -6.549820       -6.549820   1.000000   1.000000
    277         -6.548090       -6.548090   1.000000   1.000000
    278         -6.537871       -6.537871   1.000000   1.000000
    279         -6.526513       -6.526512   1.000000   1.000000
    280         -6.526513       -6.526512   1.000000   1.000000
    281         -6.519628       -6.519627   1.000000   1.000000
    282         -6.502633       -6.502633   1.000000   1.000000
    283         -6.478466       -6.478466   1.000000   1.000000
    284         -6.478466       -6.478466   1.000000   1.000000
    285         -6.475946       -6.475946   1.000000   1.000000
    286         -6.454439       -6.454438   1.000000   1.000000
    287         -6.454439       -6.454438   1.000000   1.000000
    288         -6.447924       -6.447924   1.000000   1.000000
    289         -6.416472       -6.416471   1.000000   1.000000
    290         -6.416472       -6.416471   1.000000   1.000000
    291         -6.372932       -6.372931   1.000000   1.000000
    292         -6.372932       -6.372931   1.000000   1.000000
    293         -6.354536       -6.354536   1.000000   1.000000
    294         -6.310709       -6.310709   1.000000   1.000000
    295         -6.304493       -6.304493   1.000000   1.000000
    296         -6.304493       -6.304493   1.000000   1.000000
    297         -6.284067       -6.284067   1.000000   1.000000
    298         -6.284067       -6.284067   1.000000   1.000000
    299         -6.264896       -6.264896   1.000000   1.000000
    300         -6.243026       -6.243026   1.000000   1.000000
    301         -6.228835       -6.228834   1.000000   1.000000
    302         -6.228835       -6.228834   1.000000   1.000000
    303         -6.177642       -6.177642   1.000000   1.000000
    304         -6.102609       -6.102609   1.000000   1.000000
    305         -6.102609       -6.102609   1.000000   1.000000
    306         -6.068269       -6.068268   1.000000   1.000000
    307         -6.068269       -6.068268   1.000000   1.000000
    308         -6.004797       -6.004796   1.000000   1.000000
    309         -5.952857       -5.952856   1.000000   1.000000
    310         -5.952857       -5.952856   1.000000   1.000000
    311         -5.906968       -5.906968   1.000000   1.000000
    312         -5.906968       -5.906968   1.000000   1.000000
    313         -5.855448       -5.855447   1.000000   1.000000
    314         -5.855448       -5.855447   1.000000   1.000000
    315         -5.792477       -5.792476   1.000000   1.000000
    316         -5.792477       -5.792476   1.000000   1.000000
    317         -5.715714       -5.715714   1.000000   1.000000
    318         -5.715714       -5.715714   1.000000   1.000000
    319         -5.682535       -5.682534   1.000000   1.000000
    320         -5.682535       -5.682534   1.000000   1.000000
    321         -5.653721       -5.653720   1.000000   1.000000
    322         -5.613608       -5.613608   1.000000   1.000000
    323         -5.613608       -5.613608   1.000000   1.000000
    324         -5.567855       -5.567855   1.000000   1.000000
    325         -5.567855       -5.567855   1.000000   1.000000
    326         -5.449380       -5.449380   1.000000   1.000000
    327         -5.449380       -5.449380   1.000000   1.000000
    328         -5.381220       -5.381220   1.000000   1.000000
    329         -5.381220       -5.381220   1.000000   1.000000
    330         -5.334181       -5.334180   1.000000   1.000000
    331         -5.334181       -5.334180   1.000000   1.000000
    332         -5.321235       -5.321235   1.000000   1.000000
    333         -5.321235       -5.321235   1.000000   1.000000
    334         -5.312858       -5.312858   1.000000   1.000000
    335         -5.244979       -5.244978   1.000000   1.000000
    336         -5.244979       -5.244978   1.000000   1.000000
    337         -5.167047       -5.167046   1.000000   1.000000
    338         -5.167047       -5.167046   1.000000   1.000000
    339         -5.104474       -5.104473   1.000000   1.000000
    340         -5.086682       -5.086682   1.000000   1.000000
    341         -5.086682       -5.086682   1.000000   1.000000
    342         -5.018126       -5.018126   1.000000   1.000000
    343         -5.018126       -5.018126   1.000000   1.000000
    344         -5.012808       -5.012808   1.000000   1.000000
    345         -4.876287       -4.876287   1.000000   1.000000
    346         -4.876287       -4.876287   1.000000   1.000000
    347         -4.775687       -4.775686   1.000000   1.000000
    348         -4.745932       -4.745932   1.000000   1.000000
    349         -4.745932       -4.745932   1.000000   1.000000
    350         -4.708109       -4.708109   1.000000   1.000000
    351         -4.682005       -4.682005   1.000000   1.000000
    352         -4.682005       -4.682005   1.000000   1.000000
    353         -4.595312       -4.595311   1.000000   1.000000
    354         -4.595312       -4.595311   1.000000   1.000000
    355         -4.481076       -4.481076   1.000000   1.000000
    356         -4.276343       -4.276342   1.000000   1.000000
    357         -4.276343       -4.276342   1.000000   1.000000
    358         -4.180894       -4.180893   1.000000   1.000000
    359         -4.146394       -4.146394   1.000000   1.000000
    360         -4.135554       -4.135554   1.000000   1.000000
    361         -4.135554       -4.135554   1.000000   1.000000
    362         -4.079470       -4.079470   1.000000   1.000000
    363         -4.079470       -4.079470   1.000000   1.000000
    364         -4.042097       -4.042097   1.000000   1.000000
    365         -4.042097       -4.042097   1.000000   1.000000
    366         -3.978496       -3.978495   1.000000   1.000000
    367         -3.978496       -3.978495   1.000000   1.000000
    368         -3.960642       -3.960641   1.000000   1.000000
    369         -3.925136       -3.925135   1.000000   1.000000
    370         -3.925136       -3.925135   1.000000   1.000000
    371         -3.919205       -3.919204   1.000000   1.000000
    372         -3.908330       -3.908329   1.000000   1.000000
    373         -3.899420       -3.899420   1.000000   1.000000
    374         -3.899420       -3.899420   1.000000   1.000000
    375         -3.876302       -3.876301   1.000000   1.000000
    376         -3.876302       -3.876301   1.000000   1.000000
    377         -3.871403       -3.871403   1.000000   1.000000
    378         -3.851499       -3.851499   1.000000   1.000000
    379         -3.838784       -3.838784   1.000000   1.000000
    380         -3.838784       -3.838784   1.000000   1.000000
    381         -3.832509       -3.832508   1.000000   1.000000
    382         -3.831050       -3.831049   1.000000   1.000000
    383         -3.831050       -3.831049   1.000000   1.000000
    384         -3.812267       -3.812267   1.000000   1.000000
    385         -3.785794       -3.785793   1.000000   1.000000
    386         -3.785794       -3.785793   1.000000   1.000000
    387         -3.748602       -3.748602   1.000000   1.000000
    388         -3.734665       -3.734665   1.000000   1.000000
    389         -3.698006       -3.698006   1.000000   1.000000
    390         -3.698006       -3.698006   1.000000   1.000000
    391         -3.632360       -3.632359   1.000000   1.000000
    392         -3.620260       -3.620260   1.000000   1.000000
    393         -3.550292       -3.550291   1.000000   1.000000
    394         -3.493725       -3.493725   1.000000   1.000000
    395         -3.493725       -3.493725   1.000000   1.000000
    396         -3.492788       -3.492788   1.000000   1.000000
    397         -3.405843       -3.405843   1.000000   1.000000
    398         -3.405843       -3.405843   1.000000   1.000000
    399         -3.314054       -3.314053   1.000000   1.000000
    400         -3.314054       -3.314053   1.000000   1.000000
    401         -3.291260       -3.291259   1.000000   1.000000
    402         -3.291260       -3.291259   1.000000   1.000000
    403         -3.283948       -3.283947   1.000000   1.000000
    404         -3.267128       -3.267127   1.000000   1.000000
    405         -3.223731       -3.223730   1.000000   1.000000
    406         -3.223731       -3.223730   1.000000   1.000000
    407         -3.153502       -3.153502   1.000000   1.000000
    408         -3.153502       -3.153502   1.000000   1.000000
    409         -3.084019       -3.084019   1.000000   1.000000
    410         -3.038392       -3.038392   1.000000   1.000000
    411         -3.038392       -3.038392   1.000000   1.000000
    412         -3.021445       -3.021444   1.000000   1.000000
    413         -3.013075       -3.013074   1.000000   1.000000
    414         -3.013075       -3.013074   1.000000   1.000000
    415         -3.012435       -3.012434   1.000000   1.000000
    416         -2.990076       -2.990076   1.000000   1.000000
    417         -2.990076       -2.990076   1.000000   1.000000
    418         -2.971619       -2.971619   1.000000   1.000000
    419         -2.944572       -2.944572   1.000000   1.000000
    420         -2.934564       -2.934563   1.000000   1.000000
    421         -2.934564       -2.934563   1.000000   1.000000
    422         -2.906015       -2.906014   1.000000   1.000000
    423         -2.863536       -2.863535   1.000000   1.000000
    424         -2.861493       -2.861493   1.000000   1.000000
    425         -2.861493       -2.861493   1.000000   1.000000
    426         -2.819122       -2.819122   1.000000   1.000000
    427         -2.805484       -2.805483   1.000000   1.000000
    428         -2.805484       -2.805483   1.000000   1.000000
    429         -2.778827       -2.778827   1.000000   1.000000
    430         -2.778827       -2.778827   1.000000   1.000000
    431         -2.766756       -2.766756   1.000000   1.000000
    432         -2.751856       -2.751856   1.000000   1.000000
    433         -2.637375       -2.637374   1.000000   1.000000
    434         -2.637375       -2.637374   1.000000   1.000000
    435         -2.636794       -2.636794   1.000000   1.000000
    436         -2.577163       -2.577163   1.000000   1.000000
    437         -2.493461       -2.493461   1.000000   1.000000
    438         -2.493461       -2.493461   1.000000   1.000000
    439         -2.486710       -2.486710   1.000000   1.000000
    440         -2.475456       -2.475455   1.000000   1.000000
    441         -2.475456       -2.475455   1.000000   1.000000
    442         -2.451014       -2.451014   1.000000   1.000000
    443         -2.287014       -2.287014   1.000000   1.000000
    444         -2.287014       -2.287014   1.000000   1.000000
    445         -2.266919       -2.266919   1.000000   1.000000
    446         -2.160670       -2.160670   1.000000   1.000000
    447         -2.058360       -2.058359   1.000000   1.000000
    448         -2.058360       -2.058359   1.000000   1.000000
    449         -2.016021       -2.016020   1.000000   1.000000
    450         -1.985072       -1.985071   1.000000   1.000000
    451         -1.985072       -1.985071   1.000000   1.000000
    452         -1.950537       -1.950537   1.000000   1.000000
    453         -1.825645       -1.825645   1.000000   1.000000
    454         -1.662009       -1.662009   1.000000   1.000000
    455         -1.344192       -1.344191   1.000000   1.000000
    456         -1.223138       -1.223138   1.000000   1.000000
    457         -1.159389       -1.159389   1.000000   1.000000
    458         -1.131753       -1.131753   1.000000   1.000000
    459         -1.119396       -1.119396   1.000000   1.000000
    460         -1.103485       -1.103485   1.000000   1.000000
    461         -1.087406       -1.087405   1.000000   1.000000
    462         -1.074910       -1.074909   1.000000   1.000000
    463         -1.070837       -1.070836   1.000000   1.000000
    464         -1.056789       -1.056789   1.000000   1.000000