       N       E                     dE             d eps       ncg     rms          rms(c)
DAV:   1     0.141648281161E+05    0.14165E+05   -0.62005E+05 91152   0.133E+03
DAV:   2     0.382649761316E+03   -0.13782E+05   -0.13087E+05104752   0.560E+02
DAV:   3    -0.101159588624E+04   -0.13942E+04   -0.13587E+04 92880   0.159E+02
DAV:   4    -0.106766072477E+04   -0.56065E+02   -0.54677E+02106608   0.396E+01
DAV:   5    -0.106939431338E+04   -0.17336E+01   -0.17067E+01100624   0.618E+00
DAV:   6    -0.106946894255E+04   -0.74629E-01   -0.74341E-01106928   0.139E+00
DAV:   7    -0.106947239956E+04   -0.34570E-02   -0.34521E-02100064   0.248E-01
DAV:   8    -0.106947260672E+04   -0.20716E-03   -0.20698E-03100960   0.608E-02    0.339E+02
DAV:   9    -0.659228017995E+03    0.41024E+03   -0.15182E+03 96096   0.598E+01    0.253E+02
DAV:  10    -0.628684482950E+03    0.30544E+02   -0.20514E+02 96320   0.311E+01    0.140E+02
DAV:  11    -0.595926931299E+03    0.32758E+02   -0.72942E+01 92176   0.142E+01    0.519E+01
DAV:  12    -0.560201736358E+03    0.35725E+02   -0.74003E+01101088   0.153E+01    0.491E+01
DAV:  13    -0.541373523850E+03    0.18828E+02   -0.34418E+01 95680   0.935E+00    0.294E+01
DAV:  14    -0.573501757144E+03   -0.32128E+02   -0.56681E+00 85216   0.360E+00    0.252E+01
DAV:  15    -0.623165034075E+03   -0.49663E+02   -0.12319E+01 93712   0.483E+00    0.239E+01
DAV:  16    -0.655749202883E+03   -0.32584E+02   -0.78702E+00 85248   0.369E+00    0.228E+01
DAV:  17    -0.658258595175E+03   -0.25094E+01   -0.45022E-01 87056   0.107E+00    0.222E+01
DAV:  18    -0.679872251326E+03   -0.21614E+02   -0.36051E+00 92160   0.228E+00    0.214E+01
DAV:  19    -0.759335579739E+03   -0.79463E+02   -0.47593E+01 89824   0.709E+00    0.209E+01
DAV:  20    -0.819588090759E+03   -0.60253E+02   -0.47327E+01 90000   0.682E+00    0.190E+01
DAV:  21    -0.848080595568E+03   -0.28493E+02   -0.23098E+01 90496   0.498E+00    0.151E+01
DAV:  22    -0.872816564012E+03   -0.24736E+02   -0.21496E+01 84560   0.458E+00    0.123E+01
DAV:  23    -0.878621693914E+03   -0.58051E+01   -0.74335E+00 84896   0.306E+00    0.104E+01
DAV:  24    -0.880811659593E+03   -0.21900E+01   -0.13843E+00 88352   0.180E+00    0.763E+00
DAV:  25    -0.882908923904E+03   -0.20973E+01   -0.71354E-01 89424   0.136E+00    0.576E+00
DAV:  26    -0.884167958197E+03   -0.12590E+01   -0.50021E-01 82816   0.109E+00    0.403E+00
DAV:  27    -0.884854563480E+03   -0.68661E+00   -0.23994E-01 85808   0.758E-01    0.310E+00
DAV:  28    -0.886208695838E+03   -0.13541E+01   -0.11082E-01 80304   0.479E-01    0.242E+00
DAV:  29    -0.886367840827E+03   -0.15914E+00   -0.11295E-01 84816   0.490E-01    0.169E+00
DAV:  30    -0.887629118366E+03   -0.12613E+01   -0.48185E-02 86176   0.332E-01    0.117E+00
DAV:  31    -0.890005145467E+03   -0.23760E+01   -0.14170E-02 81488   0.180E-01    0.923E-01
DAV:  32    -0.890869063435E+03   -0.86392E+00   -0.14428E-02 86544   0.159E-01    0.706E-01
DAV:  33    -0.891142436025E+03   -0.27337E+00   -0.87198E-03 87632   0.102E-01    0.555E-01
DAV:  34    -0.891291954543E+03   -0.14952E+00   -0.20496E-02 85952   0.116E-01    0.460E-01
DAV:  35    -0.891216564765E+03    0.75390E-01   -0.10606E-02 89200   0.910E-02    0.351E-01
DAV:  36    -0.891012600156E+03    0.20396E+00   -0.77129E-03 82624   0.100E-01    0.282E-01
DAV:  37    -0.890975618250E+03    0.36982E-01   -0.19162E-03 87888   0.555E-02    0.231E-01
DAV:  38    -0.891049215612E+03   -0.73597E-01   -0.67854E-04 78768   0.382E-02    0.199E-01
DAV:  39    -0.891195668477E+03   -0.14645E+00   -0.10274E-03 73712   0.369E-02    0.181E-01
DAV:  40    -0.891393751475E+03   -0.19808E+00   -0.55714E-04 73360   0.269E-02    0.167E-01
DAV:  41    -0.891647493263E+03   -0.25374E+00   -0.97971E-04 76880   0.298E-02    0.168E-01
DAV:  42    -0.891579362407E+03    0.68131E-01   -0.16530E-03 82320   0.474E-02    0.129E-01
DAV:  43    -0.891754999969E+03   -0.17564E+00   -0.73938E-04 81360   0.367E-02    0.989E-02
DAV:  44    -0.891941137408E+03   -0.18614E+00   -0.30697E-04 78352   0.231E-02    0.664E-02
DAV:  45    -0.891987918869E+03   -0.46781E-01   -0.97779E-05 79440   0.134E-02    0.455E-02
DAV:  46    -0.892002161606E+03   -0.14243E-01   -0.46314E-05 71152   0.905E-03    0.328E-02
DAV:  47    -0.892006074189E+03   -0.39126E-02   -0.47817E-05 67216   0.899E-03    0.300E-02
DAV:  48    -0.892007743945E+03   -0.16698E-02   -0.56132E-05 66864   0.945E-03    0.237E-02
DAV:  49    -0.892011096415E+03   -0.33525E-02   -0.12805E-04 68976   0.869E-03    0.186E-02
DAV:  50    -0.892017729776E+03   -0.66334E-02   -0.73054E-05 64768   0.748E-03    0.158E-02
DAV:  51    -0.892022028449E+03   -0.42987E-02   -0.22418E-05 62288   0.596E-03    0.146E-02
DAV:  52    -0.892024600663E+03   -0.25722E-02   -0.22494E-05 62880   0.625E-03    0.120E-02
DAV:  53    -0.892026463417E+03   -0.18628E-02   -0.27062E-05 61920   0.639E-03    0.110E-02
DAV:  54    -0.892027838200E+03   -0.13748E-02   -0.16926E-05 60192   0.528E-03    0.878E-03
DAV:  55    -0.892028951078E+03   -0.11129E-02   -0.83435E-06 56832   0.427E-03    0.771E-03
DAV:  56    -0.892029737110E+03   -0.78603E-03   -0.11505E-05 57856   0.450E-03    0.582E-03
DAV:  57    -0.892030003256E+03   -0.26615E-03   -0.55954E-06 53232   0.360E-03    0.404E-03
DAV:  58    -0.892030120963E+03   -0.11771E-03   -0.33080E-06 50944   0.293E-03    0.298E-03
DAV:  59    -0.892030226315E+03   -0.10535E-03   -0.24055E-06 52480   0.233E-03    0.165E-03
DAV:  60    -0.892030273400E+03   -0.47085E-04   -0.13113E-06 51616   0.189E-03    0.105E-03
DAV:  61    -0.892030313361E+03   -0.39961E-04   -0.71409E-07 52640   0.128E-03    0.787E-04
DAV:  62    -0.892030360312E+03   -0.46950E-04   -0.50242E-07 50960   0.990E-04    0.592E-04
DAV:  63    -0.892030397556E+03   -0.37244E-04   -0.36158E-07 53024   0.790E-04    0.461E-04
DAV:  64    -0.892030435783E+03   -0.38227E-04   -0.32675E-07 52704   0.673E-04    0.371E-04
DAV:  65    -0.892030486898E+03   -0.51115E-04   -0.40509E-07 51536   0.720E-04    0.301E-04
DAV:  66    -0.892030534220E+03   -0.47322E-04   -0.31002E-07 52192   0.696E-04    0.292E-04
DAV:  67    -0.892030578550E+03   -0.44330E-04   -0.25413E-07 53008   0.596E-04    0.230E-04
DAV:  68    -0.892030639680E+03   -0.61131E-04   -0.39280E-07 51200   0.718E-04    0.216E-04
DAV:  69    -0.892030671742E+03   -0.32062E-04   -0.14822E-07 53088   0.444E-04    0.165E-04
DAV:  70    -0.892030696586E+03   -0.24844E-04   -0.80008E-08 51632   0.384E-04    0.155E-04
DAV:  71    -0.892030723160E+03   -0.26574E-04   -0.84652E-08 51136   0.310E-04    0.143E-04
DAV:  72    -0.892030764885E+03   -0.41725E-04   -0.18629E-07 51648   0.449E-04    0.130E-04
DAV:  73    -0.892030801333E+03   -0.36448E-04   -0.14155E-07 52432   0.390E-04    0.126E-04
DAV:  74    -0.892030875605E+03   -0.74273E-04   -0.54457E-07 51568   0.726E-04    0.129E-04
DAV:  75    -0.892030981954E+03   -0.10635E-03   -0.11138E-06 52240   0.103E-03    0.129E-04
DAV:  76    -0.892031108318E+03   -0.12636E-03   -0.15824E-06 54000   0.120E-03    0.130E-04
DAV:  77    -0.892031222260E+03   -0.11394E-03   -0.12735E-06 51248   0.105E-03    0.130E-04
DAV:  78    -0.892031316203E+03   -0.93943E-04   -0.85544E-07 52000   0.866E-04    0.137E-04
DAV:  79    -0.892031374743E+03   -0.58540E-04   -0.34720E-07 52608   0.591E-04    0.141E-04
DAV:  80    -0.892031419998E+03   -0.45255E-04   -0.20135E-07 51536   0.492E-04    0.116E-04
DAV:  81    -0.892031477186E+03   -0.57189E-04   -0.30663E-07 50976   0.565E-04    0.103E-04
DAV:  82    -0.892031493585E+03   -0.16399E-04   -0.39186E-08 52384   0.258E-04    0.104E-04
DAV:  83    -0.892031500238E+03   -0.66526E-05   -0.65451E-09 51488   0.172E-04
   1 F= -.89203150E+03 E0= -.89199571E+03  d E =-.715869E-01  mag=     0.0001
