 vasp.6.3.2 27Jun22 (build Apr 27 2024 20:17:35) complex                        
  
 executed on             LinuxIFC date 2025.03.18  18:38:20
 running on   80 total cores
 distrk:  each k-point on   80 cores,    1 groups
 distr:  one band on NCORE=   5 cores,   16 groups


--------------------------------------------------------------------------------------------------------


 INCAR:
   SYSTEM = IrO2-110	
   ENCUT = 500
   ALGO = Normal
   NELMIN = 6
   NELM = 300
   NELMDL = -8
   EDIFF = 1.0E-5
   LREAL = AUTO
   AMIN = 0.01
   PREC = Accurate
   ISPIN = 2
   NGX = 108
   NGY = 72
   NGZ = 640
   ADDGRID = .TRUE.
   LASPH = .TRUE.
   NSW = 0
   EDIFFG = -0.025
   IBRION = 2
   ISIF = 0
   POTIM = 0.50
   ISMEAR = 0
   SIGMA = 0.0500
   LORBIT = 10
   NEDOS = 6001
   NWRITE = 1
   LWAVE = .FALSE.
   LCHARG = .TRUE.
   LAECHG = .TRUE.
   NCORE = 5
   LPLANE = .TRUE.

 POTCAR:    PAW_PBE H_GW 21Apr2008                
 POTCAR:    PAW_PBE Ir_sv_GW 23Mar2010            
 POTCAR:    PAW_PBE O_GW_new 19Mar2012            
 -----------------------------------------------------------------------------
|                                                                             |
|           W    W    AA    RRRRR   N    N  II  N    N   GGGG   !!!           |
|           W    W   A  A   R    R  NN   N  II  NN   N  G    G  !!!           |
|           W    W  A    A  R    R  N N  N  II  N N  N  G       !!!           |
|           W WW W  AAAAAA  RRRRR   N  N N  II  N  N N  G  GGG   !            |
|           WW  WW  A    A  R   R   N   NN  II  N   NN  G    G                |
|           W    W  A    A  R    R  N    N  II  N    N   GGGG   !!!           |
|                                                                             |
|     You use a magnetic or noncollinear calculation, but did not specify     |
|     the initial magnetic moment with the MAGMOM tag. Note that a            |
|     default of 1 will be used for all atoms. This ferromagnetic setup       |
|     may break the symmetry of the crystal, in particular it may rule        |
|     out finding an antiferromagnetic solution. Thence, we recommend         |
|     setting the initial magnetic moment manually or verifying carefully     |
|     that this magnetic setup is desired.                                    |
|                                                                             |
 -----------------------------------------------------------------------------

 POTCAR:    PAW_PBE H_GW 21Apr2008                
  local pseudopotential read in
  kinetic energy density of atom read in
  atomic valenz-charges read in
  non local Contribution for L=           0  read in
    real space projection operators read in
  non local Contribution for L=           0  read in
    real space projection operators read in
  non local Contribution for L=           1  read in
    real space projection operators read in
  non local Contribution for L=           1  read in
    real space projection operators read in
  non local Contribution for L=           2  read in
    real space projection operators read in
    PAW grid and wavefunctions read in
 
   number of l-projection  operators is LMAX  =           5
   number of lm-projection operators is LMMAX =          13
 
 POTCAR:    PAW_PBE Ir_sv_GW 23Mar2010            
  local pseudopotential read in
  partial core-charges read in
  partial kinetic energy density read in
  kinetic energy density of atom read in
  atomic valenz-charges read in
  non local Contribution for L=           0  read in
    real space projection operators read in
  non local Contribution for L=           0  read in
    real space projection operators read in
  non local Contribution for L=           0  read in
    real space projection operators read in
  non local Contribution for L=           1  read in
    real space projection operators read in
  non local Contribution for L=           1  read in
    real space projection operators read in
  non local Contribution for L=           2  read in
    real space projection operators read in
  non local Contribution for L=           2  read in
    real space projection operators read in
  non local Contribution for L=           3  read in
    real space projection operators read in
    PAW grid and wavefunctions read in
 
   number of l-projection  operators is LMAX  =           8
   number of lm-projection operators is LMMAX =          26
 
 POTCAR:    PAW_PBE O_GW_new 19Mar2012            
  local pseudopotential read in
  partial core-charges read in
  partial kinetic energy density read in
  kinetic energy density of atom read in
  atomic valenz-charges read in
  non local Contribution for L=           0  read in
    real space projection operators read in
  non local Contribution for L=           0  read in
    real space projection operators read in
  non local Contribution for L=           0  read in
    real space projection operators read in
  non local Contribution for L=           1  read in
    real space projection operators read in
  non local Contribution for L=           1  read in
    real space projection operators read in
  non local Contribution for L=           1  read in
    real space projection operators read in
  non local Contribution for L=           2  read in
    real space projection operators read in
  non local Contribution for L=           2  read in
    real space projection operators read in
    PAW grid and wavefunctions read in
 
   number of l-projection  operators is LMAX  =           8
   number of lm-projection operators is LMMAX =          22
 
 Optimization of the real space projectors (new method)

 maximal supplied QI-value         = 34.20
 optimisation between [QCUT,QGAM] = [ 11.29, 22.57] = [ 35.68,142.71] Ry 
 Optimized for a Real-space Cutoff    1.39 Angstroem

   l    n(q)    QCUT    max X(q) W(low)/X(q) W(high)/X(q)  e(spline) 
   0      9    11.287    26.161    0.83E-04    0.13E-04    0.69E-06
   0      9    11.287    15.773    0.76E-04    0.14E-04    0.67E-06
   1      9    11.287     3.232    0.52E-04    0.72E-04    0.76E-06
   1      9    11.287     2.453    0.58E-04    0.31E-04    0.62E-06
   2      8    11.287     6.749    0.12E-03    0.49E-03    0.66E-06
 Optimization of the real space projectors (new method)

 maximal supplied QI-value         = 16.25
 optimisation between [QCUT,QGAM] = [ 11.38, 22.75] = [ 36.24,144.96] Ry 
 Optimized for a Real-space Cutoff    1.56 Angstroem

   l    n(q)    QCUT    max X(q) W(low)/X(q) W(high)/X(q)  e(spline) 
   0     11    11.376   331.533    0.45E-04    0.10E-03    0.18E-05
   0     11    11.376   348.190    0.46E-04    0.10E-03    0.18E-05
   0     11    11.376     6.927    0.35E-04    0.83E-04    0.16E-05
   1     10    11.376     2.497    0.49E-05    0.43E-05    0.65E-07
   1     10    11.376     2.823    0.91E-05    0.21E-04    0.27E-06
   2     10    11.376    64.269    0.20E-03    0.53E-03    0.84E-06
   2     10    11.376    59.672    0.20E-03    0.54E-03    0.85E-06
   3      9    11.376     4.004    0.24E-03    0.21E-03    0.44E-06
 Optimization of the real space projectors (new method)

 maximal supplied QI-value         = 23.62
 optimisation between [QCUT,QGAM] = [ 11.34, 22.68] = [ 36.00,144.00] Ry 
 Optimized for a Real-space Cutoff    1.66 Angstroem

   l    n(q)    QCUT    max X(q) W(low)/X(q) W(high)/X(q)  e(spline) 
   0     11    11.338   116.464    0.17E-03    0.30E-03    0.79E-05
   0     11    11.338   116.329    0.16E-03    0.29E-03    0.76E-05
   0     11    11.338     0.942    0.79E-04    0.14E-03    0.33E-05
   1     11    11.338    54.336    0.24E-03    0.89E-03    0.12E-04
   1     11    11.338    48.242    0.24E-03    0.87E-03    0.12E-04
   1     11    11.338     2.381    0.18E-03    0.63E-03    0.86E-05
   2     10    11.338     2.237    0.15E-04    0.16E-04    0.66E-06
   2     10    11.338     2.457    0.37E-04    0.22E-04    0.97E-06
  PAW_PBE H_GW 21Apr2008                :
 energy of atom  1       EATOM=  -12.4884
 kinetic energy error for atom=    0.0109 (will be added to EATOM!!)
  PAW_PBE Ir_sv_GW 23Mar2010            :
 energy of atom  2       EATOM=-2883.8065
 kinetic energy error for atom=    0.0635 (will be added to EATOM!!)
  PAW_PBE O_GW_new 19Mar2012            :
 energy of atom  3       EATOM= -432.3788
 kinetic energy error for atom=    0.0278 (will be added to EATOM!!)
 
 
 POSCAR: Ir36 H18 O78
  positions in direct lattice
  velocities in cartesian coordinates
 exchange correlation table for  LEXCH =        8
   RHO(1)=    0.500       N(1)  =     2000
   RHO(2)=  100.500       N(2)  =     4000
 
 POSCAR: Ir36 H18 O78
  positions in direct lattice
  velocities in cartesian coordinates
 
 POSCAR: Ir36 H18 O78
  positions in direct lattice
  velocities in cartesian coordinates
 


--------------------------------------------------------------------------------------------------------


 ion  position               nearest neighbor table
   1  0.006  0.501  0.477- 128 1.01 121 1.70
   2  0.994  0.499  0.122- 127 1.01  55 1.70
   3  0.339  0.501  0.477- 132 1.01 122 1.70
   4  0.661  0.499  0.122- 131 1.01  57 1.70
   5  0.672  0.501  0.477- 130 1.01 123 1.70
   6  0.328  0.499  0.122- 129 1.01  56 1.70
   7  1.000  0.875  0.125-  55 0.98
   8  0.000  0.125  0.475- 121 0.98
   9  0.667  0.875  0.125-  57 0.98
  10  0.333  0.125  0.475- 122 0.98
  11  0.333  0.875  0.125-  56 0.98
  12  0.667  0.125  0.475- 123 0.98
  13  0.898  0.307  0.116- 127 0.98
  14  0.102  0.693  0.484- 128 0.98
  15  0.564  0.307  0.116- 131 0.98
  16  0.436  0.693  0.484- 132 0.98
  17  0.231  0.307  0.116- 129 0.98
  18  0.769  0.693  0.484- 130 0.98
  19  0.166  0.765  0.159-  64 1.97  58 1.99  61 2.00  62 2.00  55 2.12  56 2.12  21 3.18  20 3.18

  20  0.499  0.765  0.159-  65 1.97  59 1.99  62 2.00  63 2.00  56 2.12  57 2.12  19 3.18  21 3.18

  21  0.833  0.765  0.159-  66 1.97  60 1.99  63 2.00  61 2.00  57 2.12  55 2.12  19 3.18  20 3.18

  22  0.999  0.268  0.159-  67 1.95  66 2.00  64 2.00  60 2.03  58 2.03 127 2.23  23 3.18  24 3.18

  23  0.332  0.268  0.159-  68 1.95  64 2.00  65 2.00  58 2.03  59 2.03 129 2.23  24 3.18  22 3.18

  24  0.666  0.268  0.159-  69 1.95  65 2.00  66 2.00  59 2.03  60 2.03 131 2.23  23 3.18  22 3.18

  25  0.167  0.251  0.215-  76 1.97  70 1.98  67 2.01  74 2.01  68 2.01  73 2.01  27 3.18  26 3.18

  26  0.500  0.251  0.215-  77 1.97  71 1.98  68 2.01  75 2.01  69 2.01  74 2.01  25 3.18  27 3.18

  27  0.833  0.251  0.215-  78 1.97  72 1.98  69 2.01  73 2.01  67 2.01  75 2.01  25 3.18  26 3.18

  28  1.000  0.753  0.215-  79 1.97  61 1.98  78 2.00  76 2.01  72 2.01  70 2.01  29 3.18  30 3.18

  29  0.333  0.753  0.215-  80 1.97  62 1.98  76 2.00  77 2.01  70 2.01  71 2.01  30 3.18  28 3.18

  30  0.666  0.753  0.215-  81 1.97  63 1.98  77 2.00  78 2.01  71 2.01  72 2.01  29 3.18  28 3.18

  31  0.167  0.750  0.271-  82 1.97  88 1.97  79 2.01  80 2.01  85 2.01  86 2.01  33 3.18  32 3.18

  32  0.500  0.750  0.271-  83 1.97  89 1.97  80 2.01  81 2.01  87 2.01  86 2.01  31 3.18  33 3.18

  33  0.833  0.750  0.271-  84 1.97  90 1.97  79 2.01  81 2.01  85 2.01  87 2.01  31 3.18  32 3.18

  34  0.000  0.250  0.271-  91 1.97  73 1.98  90 2.01  82 2.01  84 2.01  88 2.01  35 3.18  36 3.18

  35  0.333  0.250  0.271-  92 1.97  74 1.98  83 2.01  89 2.01  88 2.01  82 2.01  36 3.18  34 3.18

  36  0.667  0.250  0.271-  93 1.97  75 1.98  89 2.01  83 2.01  84 2.01  90 2.01  35 3.18  34 3.18

  37  0.167  0.250  0.328-  94 1.97 100 1.97  91 2.01  92 2.01  97 2.01  98 2.01  39 3.18  38 3.18

  38  0.500  0.250  0.328-  95 1.97 101 1.97  92 2.01  93 2.01  99 2.01  98 2.01  37 3.18  39 3.18

  39  0.833  0.250  0.328-  96 1.97 102 1.97  91 2.01  93 2.01  97 2.01  99 2.01  37 3.18  38 3.18

  40  0.000  0.750  0.328-  85 1.97 103 1.98 102 2.01  94 2.01  96 2.01 100 2.01  41 3.18  42 3.18

  41  0.333  0.750  0.328-  86 1.97 104 1.98  95 2.01 101 2.01 100 2.01  94 2.01  42 3.18  40 3.18

  42  0.667  0.750  0.328-  87 1.97 105 1.98 101 2.01  95 2.01  96 2.01 102 2.01  41 3.18  40 3.18

  43  0.167  0.749  0.385- 106 1.97 112 1.98 110 2.01 103 2.01 109 2.01 104 2.01  45 3.18  44 3.18

  44  0.500  0.749  0.385- 107 1.97 113 1.98 111 2.01 104 2.01 110 2.01 105 2.01  43 3.18  45 3.18

  45  0.833  0.749  0.385- 108 1.97 114 1.98 109 2.01 105 2.01 111 2.01 103 2.01  43 3.18  44 3.18

  46  0.000  0.247  0.384-  97 1.97 115 1.98 106 2.00 108 2.01 112 2.01 114 2.01  47 3.18  48 3.18

  47  0.334  0.247  0.384-  98 1.97 116 1.98 107 2.00 106 2.01 113 2.01 112 2.01  48 3.18  46 3.18

  48  0.667  0.247  0.384-  99 1.97 117 1.98 108 2.00 107 2.01 114 2.01 113 2.01  47 3.18  46 3.18

  49  0.167  0.235  0.441- 118 1.97 124 1.99 116 2.00 115 2.00 122 2.12 121 2.12  51 3.18  50 3.18

  50  0.501  0.235  0.441- 119 1.97 125 1.99 117 2.00 116 2.00 123 2.12 122 2.12  49 3.18  51 3.18

  51  0.834  0.235  0.441- 120 1.97 126 1.99 115 2.00 117 2.00 121 2.12 123 2.12  49 3.18  50 3.18

  52  0.001  0.732  0.441- 109 1.95 118 2.00 120 2.00 124 2.03 126 2.03 128 2.23  53 3.18  54 3.18

  53  0.334  0.732  0.441- 110 1.95 119 2.00 118 2.00 125 2.03 124 2.03 132 2.23  54 3.18  52 3.18

  54  0.668  0.732  0.441- 111 1.95 120 2.00 119 2.00 126 2.03 125 2.03 130 2.23  53 3.18  52 3.18

  55  0.999  0.744  0.134-   7 0.98   2 1.70  19 2.12  21 2.12
  56  0.333  0.744  0.134-  11 0.98   6 1.70  20 2.12  19 2.12
  57  0.666  0.744  0.134-   9 0.98   4 1.70  21 2.12  20 2.12
  58  0.166  0.074  0.154-  19 1.99  23 2.03  22 2.03
  59  0.499  0.074  0.154-  20 1.99  24 2.03  23 2.03
  60  0.832  0.074  0.154-  21 1.99  22 2.03  24 2.03
  61  0.999  0.773  0.180-  28 1.98  19 2.00  21 2.00
  62  0.333  0.773  0.180-  29 1.98  20 2.00  19 2.00
  63  0.666  0.773  0.180-  30 1.98  21 2.00  20 2.00
  64  0.166  0.458  0.159-  19 1.97  23 2.00  22 2.00
  65  0.499  0.458  0.159-  20 1.97  24 2.00  23 2.00
  66  0.832  0.458  0.159-  21 1.97  22 2.00  24 2.00
  67  0.000  0.241  0.193-  22 1.95  25 2.01  27 2.01
  68  0.333  0.241  0.193-  23 1.95  26 2.01  25 2.01
  69  0.667  0.241  0.193-  24 1.95  27 2.01  26 2.01
  70  0.167  0.560  0.214-  25 1.98  29 2.01  28 2.01
  71  0.500  0.560  0.214-  26 1.98  30 2.01  29 2.01
  72  0.833  0.560  0.214-  27 1.98  28 2.01  30 2.01
  73  1.000  0.254  0.236-  34 1.98  27 2.01  25 2.01
  74  0.333  0.254  0.236-  35 1.98  25 2.01  26 2.01
  75  0.667  0.254  0.236-  36 1.98  26 2.01  27 2.01
  76  0.167  0.944  0.215-  25 1.97  29 2.00  28 2.01
  77  0.500  0.944  0.215-  26 1.97  30 2.00  29 2.01
  78  0.833  0.944  0.215-  27 1.97  28 2.00  30 2.01
  79  0.000  0.750  0.250-  28 1.97  31 2.01  33 2.01
  80  0.333  0.750  0.250-  29 1.97  32 2.01  31 2.01
  81  0.667  0.750  0.250-  30 1.97  32 2.01  33 2.01
  82  0.167  0.058  0.271-  31 1.97  34 2.01  35 2.01
  83  0.500  0.058  0.271-  32 1.97  35 2.01  36 2.01
  84  0.833  0.058  0.271-  33 1.97  34 2.01  36 2.01
  85  0.000  0.750  0.293-  40 1.97  33 2.01  31 2.01
  86  0.333  0.750  0.293-  41 1.97  32 2.01  31 2.01
  87  0.667  0.750  0.293-  42 1.97  32 2.01  33 2.01
  88  0.167  0.442  0.271-  31 1.97  34 2.01  35 2.01
  89  0.500  0.442  0.271-  32 1.97  36 2.01  35 2.01
  90  0.833  0.442  0.271-  33 1.97  34 2.01  36 2.01
  91  0.000  0.250  0.306-  34 1.97  37 2.01  39 2.01
  92  0.333  0.250  0.306-  35 1.97  38 2.01  37 2.01
  93  0.667  0.250  0.306-  36 1.97  38 2.01  39 2.01
  94  0.167  0.558  0.328-  37 1.97  40 2.01  41 2.01
  95  0.500  0.558  0.328-  38 1.97  41 2.01  42 2.01
  96  0.833  0.558  0.328-  39 1.97  40 2.01  42 2.01
  97  0.000  0.250  0.350-  46 1.97  39 2.01  37 2.01
  98  0.333  0.250  0.350-  47 1.97  38 2.01  37 2.01
  99  0.667  0.250  0.350-  48 1.97  38 2.01  39 2.01
 100  0.167  0.942  0.328-  37 1.97  40 2.01  41 2.01
 101  0.500  0.942  0.328-  38 1.97  42 2.01  41 2.01
 102  0.833  0.942  0.328-  39 1.97  40 2.01  42 2.01
 103  0.000  0.746  0.363-  40 1.98  43 2.01  45 2.01
 104  0.333  0.746  0.363-  41 1.98  44 2.01  43 2.01
 105  0.667  0.746  0.363-  42 1.98  45 2.01  44 2.01
 106  0.167  0.056  0.384-  43 1.97  46 2.00  47 2.01
 107  0.500  0.056  0.384-  44 1.97  47 2.00  48 2.01
 108  0.833  0.056  0.384-  45 1.97  48 2.00  46 2.01
 109  1.000  0.759  0.406-  52 1.95  45 2.01  43 2.01
 110  0.333  0.759  0.406-  53 1.95  43 2.01  44 2.01
 111  0.667  0.759  0.406-  54 1.95  44 2.01  45 2.01
 112  0.167  0.440  0.385-  43 1.98  46 2.01  47 2.01
 113  0.500  0.440  0.385-  44 1.98  47 2.01  48 2.01
 114  0.833  0.440  0.385-  45 1.98  48 2.01  46 2.01
 115  0.001  0.227  0.419-  46 1.98  51 2.00  49 2.00
 116  0.334  0.227  0.419-  47 1.98  49 2.00  50 2.00
 117  0.667  0.227  0.419-  48 1.98  50 2.00  51 2.00
 118  0.168  0.542  0.440-  49 1.97  52 2.00  53 2.00
 119  0.501  0.542  0.440-  50 1.97  53 2.00  54 2.00
 120  0.834  0.542  0.440-  51 1.97  54 2.00  52 2.00
 121  0.001  0.256  0.466-   8 0.98   1 1.70  51 2.12  49 2.12
 122  0.334  0.256  0.466-  10 0.98   3 1.70  49 2.12  50 2.12
 123  0.667  0.256  0.466-  12 0.98   5 1.70  50 2.12  51 2.12
 124  0.168  0.926  0.445-  49 1.99  52 2.03  53 2.03
 125  0.501  0.926  0.445-  50 1.99  53 2.03  54 2.03
 126  0.834  0.926  0.445-  51 1.99  54 2.03  52 2.03
 127  0.995  0.341  0.120-  13 0.98   2 1.01  22 2.23
 128  0.005  0.659  0.479-  14 0.98   1 1.01  52 2.23
 129  0.328  0.341  0.120-  17 0.98   6 1.01  23 2.23
 130  0.672  0.659  0.479-  18 0.98   5 1.01  54 2.23
 131  0.661  0.341  0.120-  15 0.98   4 1.01  24 2.23
 132  0.339  0.659  0.479-  16 0.98   3 1.01  53 2.23
 
  LATTYP: Found a simple orthorhombic cell.
 ALAT       =     6.4022918039
 B/A-ratio  =     1.4889259653
 C/A-ratio  =     8.8429110168
  
  Lattice vectors:
  
 A1 = (  -0.0000000000,  -6.4022918039,   0.0000000000)
 A2 = (   9.5325385041,   0.0000000000,   0.0000000000)
 A3 = (   0.0000000000,   0.0000000000,  56.6148967251)


Analysis of symmetry for initial positions (statically):
=====================================================================
 Subroutine PRICEL returns following result:
 
  LATTYP: Found a simple orthorhombic cell.
 ALAT       =     3.1775128347
 B/A-ratio  =     2.0148751986
 C/A-ratio  =    17.8173620912
  
  Lattice vectors:
  
 A1 = (   3.1775128347,   0.0000000000,   0.0000000000)
 A2 = (   0.0000000000,   6.4022918039,   0.0000000000)
 A3 = (   0.0000000000,   0.0000000000,  56.6148967251)
 
   3 primitive cells build up your supercell.
 

 Routine SETGRP: Setting up the symmetry group for a 
 simple orthorhombic supercell.


 Subroutine GETGRP returns: Found  2 space group operations
 (whereof  1 operations were pure point group operations)
 out of a pool of  8 trial point group operations.


The static configuration has the point symmetry C_1 .
 The point group associated with its full space group is S_2 .


Analysis of symmetry for dynamics (positions and initial velocities):
=====================================================================
 Subroutine PRICEL returns following result:
 
  LATTYP: Found a simple orthorhombic cell.
 ALAT       =     3.1775128347
 B/A-ratio  =     2.0148751986
 C/A-ratio  =    17.8173620912
  
  Lattice vectors:
  
 A1 = (   3.1775128347,   0.0000000000,   0.0000000000)
 A2 = (   0.0000000000,   6.4022918039,   0.0000000000)
 A3 = (   0.0000000000,   0.0000000000,  56.6148967251)
 
   3 primitive cells build up your supercell.
 

 Routine SETGRP: Setting up the symmetry group for a 
 simple orthorhombic supercell.


 Subroutine GETGRP returns: Found  2 space group operations
 (whereof  1 operations were pure point group operations)
 out of a pool of  8 trial point group operations.


The dynamic configuration has the point symmetry C_1 .
 The point group associated with its full space group is S_2 .


Analysis of constrained symmetry for selective dynamics:
=====================================================================
 Subroutine PRICEL returns following result:
 
  LATTYP: Found a simple orthorhombic cell.
 ALAT       =     3.1775128347
 B/A-ratio  =     2.0148751986
 C/A-ratio  =    17.8173620912
  
  Lattice vectors:
  
 A1 = (   3.1775128347,   0.0000000000,   0.0000000000)
 A2 = (   0.0000000000,   6.4022918039,   0.0000000000)
 A3 = (   0.0000000000,   0.0000000000,  56.6148967251)
 
   3 primitive cells build up your supercell.
 

 Routine SETGRP: Setting up the symmetry group for a 
 simple orthorhombic supercell.


 Subroutine GETGRP returns: Found  2 space group operations
 (whereof  1 operations were pure point group operations)
 out of a pool of  8 trial point group operations.


The constrained configuration has the point symmetry C_1 .
 The point group associated with its full space group is S_2 .


Analysis of structural, dynamic, and magnetic symmetry:
=====================================================================
 Subroutine PRICEL returns following result:
 
  LATTYP: Found a simple orthorhombic cell.
 ALAT       =     3.1775128347
 B/A-ratio  =     2.0148751986
 C/A-ratio  =    17.8173620912
  
  Lattice vectors:
  
 A1 = (   3.1775128347,   0.0000000000,   0.0000000000)
 A2 = (   0.0000000000,   6.4022918039,   0.0000000000)
 A3 = (   0.0000000000,   0.0000000000,  56.6148967251)
 
   3 primitive cells build up your supercell.
 

 Routine SETGRP: Setting up the symmetry group for a 
 simple orthorhombic supercell.


 Subroutine GETGRP returns: Found  2 space group operations
 (whereof  1 operations were pure point group operations)
 out of a pool of  8 trial point group operations.


The overall configuration has the point symmetry C_1 .
 The point group associated with its full space group is S_2 .


 Subroutine INISYM returns: Found  2 space group operations
 (whereof  1 operations are pure point group operations),
 and found     3 'primitive' translations


----------------------------------------------------------------------------------------

                                     Primitive cell                                     

  volume of cell :    1151.7375

  direct lattice vectors                    reciprocal lattice vectors
     3.177512835  0.000000000  0.000000000     0.314711553 -0.000000000  0.000000000
     0.000000000  6.402291804  0.000000000     0.000000000  0.156194068  0.000000000
     0.000000000  0.000000000 56.614896725    -0.000000000 -0.000000000  0.017663196

  length of vectors
     3.177512835  6.402291804 56.614896725     0.314711553  0.156194068  0.017663196

  position of ions in fractional coordinates (direct lattice)
     0.017481015  0.501307017  0.477131261
     0.982518985  0.498692983  0.122217273
     0.999564668  0.874774863  0.124808041
     0.000435332  0.125225137  0.474540493
     0.693473203  0.306731801  0.115594889
     0.306526797  0.693268199  0.483753646
     0.497675267  0.765153134  0.158537284
     0.996641704  0.267621786  0.158602889
     0.500002172  0.251228638  0.214668556
     0.999430864  0.752766651  0.214912398
     0.500000000  0.750000000  0.271403839
     0.000000000  0.250000000  0.271403839
     0.500000000  0.250000000  0.327946306
     0.000000000  0.750000000  0.327946306
     0.499997828  0.748771362  0.384681588
     0.000569136  0.247233349  0.384437747
     0.502324733  0.234846866  0.440812861
     0.003358296  0.732378214  0.440747256
     0.997880778  0.744453184  0.133764028
     0.497082382  0.074402142  0.154425977
     0.998087747  0.772634244  0.179998359
     0.496950584  0.457688241  0.159102896
     0.000116149  0.240783509  0.192940337
     0.499586071  0.560268628  0.214262562
     0.999953572  0.253963834  0.236431782
     0.499574851  0.943684954  0.215336698
     0.000000000  0.750000000  0.249724761
     0.500000000  0.058293842  0.271403839
     0.000000000  0.750000000  0.293082917
     0.500000000  0.441706158  0.271403839
     0.000000000  0.250000000  0.306267228
     0.500000000  0.558293842  0.327946306
     0.000000000  0.250000000  0.349625384
     0.500000000  0.941706158  0.327946306
     0.000046428  0.746036166  0.362918363
     0.500425149  0.056315046  0.384013447
     0.999883851  0.759216491  0.406409808
     0.500413929  0.439731372  0.385087583
     0.001912253  0.227365756  0.419351786
     0.503049416  0.542311759  0.440247249
     0.002119222  0.255546816  0.465586117
     0.502917618  0.925597858  0.444924168
     0.983893887  0.341399510  0.120024155
     0.016106113  0.658600490  0.479324379

  ion indices of the primitive-cell ions
   primitive index   ion index
                 1           1
                 2           2
                 3           7
                 4           8
                 5          13
                 6          14
                 7          19
                 8          22
                 9          25
                10          28
                11          31
                12          34
                13          37
                14          40
                15          43
                16          46
                17          49
                18          52
                19          55
                20          58
                21          61
                22          64
                23          67
                24          70
                25          73
                26          76
                27          79
                28          82
                29          85
                30          88
                31          91
                32          94
                33          97
                34         100
                35         103
                36         106
                37         109
                38         112
                39         115
                40         118
                41         121
                42         124
                43         127
                44         128

----------------------------------------------------------------------------------------

 
 
 KPOINTS: Automatic mesh                          

Automatic generation of k-mesh.
 Grid dimensions read from file:
 generate k-points for:    6    8    1

 Generating k-lattice:

  Cartesian coordinates                     Fractional coordinates (reciprocal lattice)
     0.017483975 -0.000000000  0.000000000     0.166666667  0.000000000  0.000000000
     0.000000000  0.019524258  0.000000000     0.000000000  0.125000000  0.000000000
    -0.000000000 -0.000000000  0.017663196     0.000000000  0.000000000  1.000000000

  Length of vectors
     0.017483975  0.019524258  0.017663196

  Shift w.r.t. Gamma in fractional coordinates (k-lattice)
     0.000000000  0.000000000  0.000000000

 
 Subroutine IBZKPT returns following result:
 ===========================================
 
 Found     26 irreducible k-points:
 
 Following reciprocal coordinates:
            Coordinates               Weight
  0.000000  0.000000  0.000000      1.000000
  0.166667 -0.000000  0.000000      2.000000
  0.333333 -0.000000  0.000000      2.000000
  0.500000 -0.000000  0.000000      1.000000
  0.000000  0.125000  0.000000      2.000000
  0.166667  0.125000  0.000000      2.000000
 -0.166667  0.125000  0.000000      2.000000
  0.333333  0.125000  0.000000      2.000000
 -0.333333  0.125000  0.000000      2.000000
  0.500000  0.125000  0.000000      2.000000
  0.000000  0.250000  0.000000      2.000000
  0.166667  0.250000  0.000000      2.000000
 -0.166667  0.250000  0.000000      2.000000
  0.333333  0.250000  0.000000      2.000000
 -0.333333  0.250000  0.000000      2.000000
  0.500000  0.250000  0.000000      2.000000
  0.000000  0.375000  0.000000      2.000000
  0.166667  0.375000  0.000000      2.000000
 -0.166667  0.375000  0.000000      2.000000
  0.333333  0.375000  0.000000      2.000000
 -0.333333  0.375000  0.000000      2.000000
  0.500000  0.375000  0.000000      2.000000
  0.000000  0.500000  0.000000      1.000000
  0.166667  0.500000  0.000000      2.000000
  0.333333  0.500000  0.000000      2.000000
  0.500000  0.500000  0.000000      1.000000
 
 Following cartesian coordinates:
            Coordinates               Weight
  0.000000  0.000000  0.000000      1.000000
  0.017484 -0.000000  0.000000      2.000000
  0.034968 -0.000000  0.000000      2.000000
  0.052452 -0.000000  0.000000      1.000000
  0.000000  0.019524  0.000000      2.000000
  0.017484  0.019524  0.000000      2.000000
 -0.017484  0.019524  0.000000      2.000000
  0.034968  0.019524  0.000000      2.000000
 -0.034968  0.019524  0.000000      2.000000
  0.052452  0.019524  0.000000      2.000000
  0.000000  0.039049  0.000000      2.000000
  0.017484  0.039049  0.000000      2.000000
 -0.017484  0.039049  0.000000      2.000000
  0.034968  0.039049  0.000000      2.000000
 -0.034968  0.039049  0.000000      2.000000
  0.052452  0.039049  0.000000      2.000000
  0.000000  0.058573  0.000000      2.000000
  0.017484  0.058573  0.000000      2.000000
 -0.017484  0.058573  0.000000      2.000000
  0.034968  0.058573  0.000000      2.000000
 -0.034968  0.058573  0.000000      2.000000
  0.052452  0.058573  0.000000      2.000000
  0.000000  0.078097  0.000000      1.000000
  0.017484  0.078097  0.000000      2.000000
  0.034968  0.078097  0.000000      2.000000
  0.052452  0.078097  0.000000      1.000000
 


--------------------------------------------------------------------------------------------------------




 Dimension of arrays:
   k-points           NKPTS =     26   k-points in BZ     NKDIM =     26   number of bands    NBANDS=    736
   number of dos      NEDOS =   6001   number of ions     NIONS =    132
   non local maximal  LDIM  =      8   non local SUM 2l+1 LMDIM =     26
   total plane-waves  NPLWV = ******
   max r-space proj   IRMAX =  27620   max aug-charges    IRDMAX= 386720
   dimension x,y,z NGX =   108 NGY =   72 NGZ =  640
   dimension x,y,z NGXF=   216 NGYF=  144 NGZF= 1280
   support grid    NGXF=   432 NGYF=  288 NGZF= 2560
   ions per type =              18  36  78
   NGX,Y,Z   is equivalent  to a cutoff of  18.84, 18.70, 18.79 a.u.
   NGXF,Y,Z  is equivalent  to a cutoff of  37.67, 37.39, 37.59 a.u.

 Based on PREC, I would recommend the following setting:
   dimension x,y,z NGX =    70 NGY =   48 NGZ =  420

 SYSTEM =  IrO2-110	                               
 POSCAR =  Ir36 H18 O78                            

 Startparameter for this run:
   NWRITE =      1    write-flag & timer
   PREC   = accura    normal or accurate (medium, high low for compatibility)
   ISTART =      0    job   : 0-new  1-cont  2-samecut
   ICHARG =      2    charge: 1-file 2-atom 10-const
   ISPIN  =      2    spin polarized calculation?
   LNONCOLLINEAR =      F non collinear calculations
   LSORBIT =      F    spin-orbit coupling
   INIWAV =      1    electr: 0-lowe 1-rand  2-diag
   LASPH  =      T    aspherical Exc in radial PAW
 Electronic Relaxation 1
   ENCUT  =  500.0 eV  36.75 Ry    6.06 a.u.  17.38 11.67103.22*2*pi/ulx,y,z
   ENINI  =  500.0     initial cutoff
   ENAUG  = 1139.6 eV  augmentation charge cutoff
   NELM   =    300;   NELMIN=  6; NELMDL= -8     # of ELM steps 
   EDIFF  = 0.1E-04   stopping-criterion for ELM
   LREAL  =      T    real-space projection
   NLSPLINE    = F    spline interpolate recip. space projectors
   LCOMPAT=      F    compatible to vasp.4.4
   GGA_COMPAT  = T    GGA compatible to vasp.4.4-vasp.4.6
   LMAXPAW     = -100 max onsite density
   LMAXMIX     =    2 max onsite mixed and CHGCAR
   VOSKOWN=      0    Vosko Wilk Nusair interpolation
   ROPT   =   -0.00025  -0.00025  -0.00025
 Ionic relaxation
   EDIFFG = -.3E-01   stopping-criterion for IOM
   NSW    =      0    number of steps for IOM
   NBLOCK =      1;   KBLOCK =      1    inner block; outer block 
   IBRION =     -1    ionic relax: 0-MD 1-quasi-New 2-CG
   NFREE  =      1    steps in history (QN), initial steepest desc. (CG)
   ISIF   =      0    stress and relaxation
   IWAVPR =     10    prediction:  0-non 1-charg 2-wave 3-comb
   ISYM   =      2    0-nonsym 1-usesym 2-fastsym
   LCORR  =      T    Harris-Foulkes like correction to forces

   POTIM  = 0.5000    time-step for ionic-motion
   TEIN   =    0.0    initial temperature
   TEBEG  =    0.0;   TEEND  =   0.0 temperature during run
   SMASS  =  -3.00    Nose mass-parameter (am)
   estimated Nose-frequenzy (Omega)   =  0.10E-29 period in steps = 0.13E+47 mass=  -0.208E-26a.u.
   SCALEE = 1.0000    scale energy and forces
   NPACO  =    256;   APACO  = 10.0  distance and # of slots for P.C.
   PSTRESS=    0.0 pullay stress

  Mass of Ions in am
   POMASS =   1.00192.22 16.00
  Ionic Valenz
   ZVAL   =   1.00 17.00  6.00
  Atomic Wigner-Seitz radii
   RWIGS  =  -1.00 -1.00 -1.00
  virtual crystal weights 
   VCA    =   1.00  1.00  1.00
   NELECT =    1098.0000    total number of electrons
   NUPDOWN=      -1.0000    fix difference up-down

 DOS related values:
   EMIN   =  10.00;   EMAX   =-10.00  energy-range for DOS
   EFERMI =   0.00
   ISMEAR =     0;   SIGMA  =   0.05  broadening in eV -4-tet -1-fermi 0-gaus

 Electronic relaxation 2 (details)
   IALGO  =     38    algorithm
   LDIAG  =      T    sub-space diagonalisation (order eigenvalues)
   LSUBROT=      F    optimize rotation matrix (better conditioning)
   TURBO    =      0    0=normal 1=particle mesh
   IRESTART =      0    0=no restart 2=restart with 2 vectors
   NREBOOT  =      0    no. of reboots
   NMIN     =      0    reboot dimension
   EREF     =   0.00    reference energy to select bands
   IMIX   =      4    mixing-type and parameters
     AMIX     =   0.40;   BMIX     =  1.00
     AMIX_MAG =   1.60;   BMIX_MAG =  1.00
     AMIN     =   0.01
     WC   =   100.;   INIMIX=   1;  MIXPRE=   1;  MAXMIX= -45

 Intra band minimization:
   WEIMIN = 0.0000     energy-eigenvalue tresh-hold
   EBREAK =  0.34E-08  absolut break condition
   DEPER  =   0.30     relativ break condition  

   TIME   =   0.40     timestep for ELM

  volume/ion in A,a.u.               =      26.18       176.64
  Fermi-wavevector in a.u.,A,eV,Ry     =   1.117165  2.111136 16.980858  1.248058
  Thomas-Fermi vector in A             =   2.253785
 
 Write flags
   LWAVE        =      F    write WAVECAR
   LDOWNSAMPLE  =      F    k-point downsampling of WAVECAR
   LCHARG       =      T    write CHGCAR
   LVTOT        =      F    write LOCPOT, total local potential
   LVHAR        =      F    write LOCPOT, Hartree potential only
   LELF         =      F    write electronic localiz. function (ELF)
   LORBIT       =     10    0 simple, 1 ext, 2 COOP (PROOUT), +10 PAW based schemes


 Dipole corrections
   LMONO  =      F    monopole corrections only (constant potential shift)
   LDIPOL =      F    correct potential (dipole corrections)
   IDIPOL =      0    1-x, 2-y, 3-z, 4-all directions 
   EPSILON=  1.0000000 bulk dielectric constant

 Exchange correlation treatment:
   GGA     =    --    GGA type
   LEXCH   =     8    internal setting for exchange type
   LIBXC   =     F    Libxc                    
   VOSKOWN =     0    Vosko Wilk Nusair interpolation
   LHFCALC =     F    Hartree Fock is set to
   LHFONE  =     F    Hartree Fock one center treatment
   AEXX    =    0.0000 exact exchange contribution

 Linear response parameters
   LEPSILON=     F    determine dielectric tensor
   LRPA    =     F    only Hartree local field effects (RPA)
   LNABLA  =     F    use nabla operator in PAW spheres
   LVEL    =     F    velocity operator in full k-point grid
   CSHIFT  =0.1000    complex shift for real part using Kramers Kronig
   OMEGAMAX=  -1.0    maximum frequency
   DEG_THRESHOLD= 0.2000000E-02 threshold for treating states as degnerate
   RTIME   =   -0.100 relaxation time in fs
  (WPLASMAI=    0.000 imaginary part of plasma frequency in eV, 0.658/RTIME)
   DFIELD  = 0.0000000 0.0000000 0.0000000 field for delta impulse in time
 
  Optional k-point grid parameters
   LKPOINTS_OPT  =     F    use optional k-point grid
   KPOINTS_OPT_MODE=     1    mode for optional k-point grid
 
 Orbital magnetization related:
   ORBITALMAG=     F  switch on orbital magnetization
   LCHIMAG   =     F  perturbation theory with respect to B field
   DQ        =  0.001000  dq finite difference perturbation B field
   LLRAUG    =     F  two centre corrections for induced B field



--------------------------------------------------------------------------------------------------------


 Static calculation
 charge density and potential will be updated during run
 spin polarized calculation
 Variant of blocked Davidson
 Davidson routine will perform the subspace rotation
 perform sub-space diagonalisation
    after iterative eigenvector-optimisation
 modified Broyden-mixing scheme, WC =      100.0
 initial mixing is a Kerker type mixing with AMIX =  0.4000 and BMIX =      1.0000
 Hartree-type preconditioning will be used
 using additional bands          187
 real space projection scheme for non local part
 use partial core corrections
 calculate Harris-corrections to forces 
   (improved forces if not selfconsistent)
 use gradient corrections 
 use of overlap-Matrix (Vanderbilt PP)
 Gauss-broadening in eV      SIGMA  =   0.05


--------------------------------------------------------------------------------------------------------


  energy-cutoff  :      500.00
  volume of cell :     3455.21
      direct lattice vectors                 reciprocal lattice vectors
     9.532538504  0.000000000  0.000000000     0.104903851 -0.000000000  0.000000000
     0.000000000  6.402291804  0.000000000     0.000000000  0.156194068  0.000000000
     0.000000000  0.000000000 56.614896725    -0.000000000 -0.000000000  0.017663196

  length of vectors
     9.532538504  6.402291804 56.614896725     0.104903851  0.156194068  0.017663196


 
 k-points in units of 2pi/SCALE and weight: Automatic mesh                          
   0.00000000  0.00000000  0.00000000       0.021
   0.01748398 -0.00000000  0.00000000       0.042
   0.03496795 -0.00000000  0.00000000       0.042
   0.05245193 -0.00000000  0.00000000       0.021
   0.00000000  0.01952426  0.00000000       0.042
   0.01748398  0.01952426  0.00000000       0.042
  -0.01748398  0.01952426  0.00000000       0.042
   0.03496795  0.01952426  0.00000000       0.042
  -0.03496795  0.01952426  0.00000000       0.042
   0.05245193  0.01952426  0.00000000       0.042
   0.00000000  0.03904852  0.00000000       0.042
   0.01748398  0.03904852  0.00000000       0.042
  -0.01748398  0.03904852  0.00000000       0.042
   0.03496795  0.03904852  0.00000000       0.042
  -0.03496795  0.03904852  0.00000000       0.042
   0.05245193  0.03904852  0.00000000       0.042
   0.00000000  0.05857278  0.00000000       0.042
   0.01748398  0.05857278  0.00000000       0.042
  -0.01748398  0.05857278  0.00000000       0.042
   0.03496795  0.05857278  0.00000000       0.042
  -0.03496795  0.05857278  0.00000000       0.042
   0.05245193  0.05857278  0.00000000       0.042
   0.00000000  0.07809703  0.00000000       0.021
   0.01748398  0.07809703  0.00000000       0.042
   0.03496795  0.07809703  0.00000000       0.042
   0.05245193  0.07809703  0.00000000       0.021
 
 k-points in reciprocal lattice and weights: Automatic mesh                          
   0.00000000  0.00000000  0.00000000       0.021
   0.16666667 -0.00000000  0.00000000       0.042
   0.33333333 -0.00000000  0.00000000       0.042
   0.50000000 -0.00000000  0.00000000       0.021
   0.00000000  0.12500000  0.00000000       0.042
   0.16666667  0.12500000  0.00000000       0.042
  -0.16666667  0.12500000  0.00000000       0.042
   0.33333333  0.12500000  0.00000000       0.042
  -0.33333333  0.12500000  0.00000000       0.042
   0.50000000  0.12500000  0.00000000       0.042
   0.00000000  0.25000000  0.00000000       0.042
   0.16666667  0.25000000  0.00000000       0.042
  -0.16666667  0.25000000  0.00000000       0.042
   0.33333333  0.25000000  0.00000000       0.042
  -0.33333333  0.25000000  0.00000000       0.042
   0.50000000  0.25000000  0.00000000       0.042
   0.00000000  0.37500000  0.00000000       0.042
   0.16666667  0.37500000  0.00000000       0.042
  -0.16666667  0.37500000  0.00000000       0.042
   0.33333333  0.37500000  0.00000000       0.042
  -0.33333333  0.37500000  0.00000000       0.042
   0.50000000  0.37500000  0.00000000       0.042
   0.00000000  0.50000000  0.00000000       0.021
   0.16666667  0.50000000  0.00000000       0.042
   0.33333333  0.50000000  0.00000000       0.042
   0.50000000  0.50000000  0.00000000       0.021
 
 position of ions in fractional coordinates (direct lattice) 
   0.00582701  0.50130702  0.47713126
   0.99417299  0.49869298  0.12221727
   0.33916034  0.50130702  0.47713126
   0.66083966  0.49869298  0.12221727
   0.67249367  0.50130702  0.47713126
   0.32750633  0.49869298  0.12221727
   0.99985489  0.87477486  0.12480804
   0.00014511  0.12522514  0.47454049
   0.66652156  0.87477486  0.12480804
   0.33347844  0.12522514  0.47454049
   0.33318822  0.87477486  0.12480804
   0.66681178  0.12522514  0.47454049
   0.89782440  0.30673180  0.11559489
   0.10217560  0.69326820  0.48375365
   0.56449107  0.30673180  0.11559489
   0.43550893  0.69326820  0.48375365
   0.23115773  0.30673180  0.11559489
   0.76884227  0.69326820  0.48375365
   0.16589176  0.76515313  0.15853728
   0.49922509  0.76515313  0.15853728
   0.83255842  0.76515313  0.15853728
   0.99888057  0.26762179  0.15860289
   0.33221390  0.26762179  0.15860289
   0.66554723  0.26762179  0.15860289
   0.16666739  0.25122864  0.21466856
   0.50000072  0.25122864  0.21466856
   0.83333406  0.25122864  0.21466856
   0.99981029  0.75276665  0.21491240
   0.33314362  0.75276665  0.21491240
   0.66647695  0.75276665  0.21491240
   0.16666667  0.75000000  0.27140384
   0.50000000  0.75000000  0.27140384
   0.83333333  0.75000000  0.27140384
   0.00000000  0.25000000  0.27140384
   0.33333333  0.25000000  0.27140384
   0.66666667  0.25000000  0.27140384
   0.16666667  0.25000000  0.32794631
   0.50000000  0.25000000  0.32794631
   0.83333333  0.25000000  0.32794631
   0.00000000  0.75000000  0.32794631
   0.33333333  0.75000000  0.32794631
   0.66666667  0.75000000  0.32794631
   0.16666594  0.74877136  0.38468159
   0.49999928  0.74877136  0.38468159
   0.83333261  0.74877136  0.38468159
   0.00018971  0.24723335  0.38443775
   0.33352305  0.24723335  0.38443775
   0.66685638  0.24723335  0.38443775
   0.16744158  0.23484687  0.44081286
   0.50077491  0.23484687  0.44081286
   0.83410824  0.23484687  0.44081286
   0.00111943  0.73237821  0.44074726
   0.33445277  0.73237821  0.44074726
   0.66778610  0.73237821  0.44074726
   0.99929359  0.74445318  0.13376403
   0.33262693  0.74445318  0.13376403
   0.66596026  0.74445318  0.13376403
   0.16569413  0.07440214  0.15442598
   0.49902746  0.07440214  0.15442598
   0.83236079  0.07440214  0.15442598
   0.99936258  0.77263424  0.17999836
   0.33269592  0.77263424  0.17999836
   0.66602925  0.77263424  0.17999836
   0.16565019  0.45768824  0.15910290
   0.49898353  0.45768824  0.15910290
   0.83231686  0.45768824  0.15910290
   0.00003872  0.24078351  0.19294034
   0.33337205  0.24078351  0.19294034
   0.66670538  0.24078351  0.19294034
   0.16652869  0.56026863  0.21426256
   0.49986202  0.56026863  0.21426256
   0.83319536  0.56026863  0.21426256
   0.99998452  0.25396383  0.23643178
   0.33331786  0.25396383  0.23643178
   0.66665119  0.25396383  0.23643178
   0.16652495  0.94368495  0.21533670
   0.49985828  0.94368495  0.21533670
   0.83319162  0.94368495  0.21533670
   0.00000000  0.75000000  0.24972476
   0.33333333  0.75000000  0.24972476
   0.66666667  0.75000000  0.24972476
   0.16666667  0.05829384  0.27140384
   0.50000000  0.05829384  0.27140384
   0.83333333  0.05829384  0.27140384
   0.00000000  0.75000000  0.29308292
   0.33333333  0.75000000  0.29308292
   0.66666667  0.75000000  0.29308292
   0.16666667  0.44170616  0.27140384
   0.50000000  0.44170616  0.27140384
   0.83333333  0.44170616  0.27140384
   0.00000000  0.25000000  0.30626723
   0.33333333  0.25000000  0.30626723
   0.66666667  0.25000000  0.30626723
   0.16666667  0.55829384  0.32794631
   0.50000000  0.55829384  0.32794631
   0.83333333  0.55829384  0.32794631
   0.00000000  0.25000000  0.34962538
   0.33333333  0.25000000  0.34962538
   0.66666667  0.25000000  0.34962538
   0.16666667  0.94170616  0.32794631
   0.50000000  0.94170616  0.32794631
   0.83333333  0.94170616  0.32794631
   0.00001548  0.74603617  0.36291836
   0.33334881  0.74603617  0.36291836
   0.66668214  0.74603617  0.36291836
   0.16680838  0.05631505  0.38401345
   0.50014172  0.05631505  0.38401345
   0.83347505  0.05631505  0.38401345
   0.99996128  0.75921649  0.40640981
   0.33329462  0.75921649  0.40640981
   0.66662795  0.75921649  0.40640981
   0.16680464  0.43973137  0.38508758
   0.50013798  0.43973137  0.38508758
   0.83347131  0.43973137  0.38508758
   0.00063742  0.22736576  0.41935179
   0.33397075  0.22736576  0.41935179
   0.66730408  0.22736576  0.41935179
   0.16768314  0.54231176  0.44024725
   0.50101647  0.54231176  0.44024725
   0.83434981  0.54231176  0.44024725
   0.00070641  0.25554682  0.46558612
   0.33403974  0.25554682  0.46558612
   0.66737307  0.25554682  0.46558612
   0.16763921  0.92559786  0.44492417
   0.50097254  0.92559786  0.44492417
   0.83430587  0.92559786  0.44492417
   0.99463130  0.34139951  0.12002416
   0.00536870  0.65860049  0.47932438
   0.32796463  0.34139951  0.12002416
   0.67203537  0.65860049  0.47932438
   0.66129796  0.34139951  0.12002416
   0.33870204  0.65860049  0.47932438
 
 position of ions in cartesian coordinates  (Angst):
   0.05554615  3.20951381 27.01273708
   9.47699235  3.19277800  6.91931829
   3.23305899  3.20951381 27.01273708
   6.29947952  3.19277800  6.91931829
   6.41057182  3.20951381 27.01273708
   3.12196668  3.19277800  6.91931829
   9.53115523  5.60056393  7.06599434
   0.00138327  0.80172787 26.86606102
   6.35364240  5.60056393  7.06599434
   3.17889611  0.80172787 26.86606102
   3.17612956  5.60056393  7.06599434
   6.35640894  0.80172787 26.86606102
   8.55854567  1.96378649  6.54439268
   0.97399283  4.43850531 27.38766269
   5.38103284  1.96378649  6.54439268
   4.15150567  4.43850531 27.38766269
   2.20352000  1.96378649  6.54439268
   7.32901850  4.43850531 27.38766269
   1.58136955  4.89873364  8.97557195
   4.75888238  4.89873364  8.97557195
   7.93639522  4.89873364  8.97557195
   9.52186748  1.71339277  8.97928616
   3.16684181  1.71339277  8.97928616
   6.34435464  1.71339277  8.97928616
   1.58876332  1.60843905 12.15343816
   4.76627615  1.60843905 12.15343816
   7.94378899  1.60843905 12.15343816
   9.53073007  4.81943176 12.16724320
   3.17570440  4.81943176 12.16724320
   6.35321723  4.81943176 12.16724320
   1.58875642  4.80171885 15.36550033
   4.76626925  4.80171885 15.36550033
   7.94378209  4.80171885 15.36550033
   0.00000000  1.60057295 15.36550033
   3.17751283  1.60057295 15.36550033
   6.35502567  1.60057295 15.36550033
   1.58875642  1.60057295 18.56664623
   4.76626925  1.60057295 18.56664623
   7.94378209  1.60057295 18.56664623
   0.00000000  4.80171885 18.56664623
   3.17751283  4.80171885 18.56664623
   6.35502567  4.80171885 18.56664623
   1.58874952  4.79385275 21.77870840
   4.76626235  4.79385275 21.77870840
   7.94377519  4.79385275 21.77870840
   0.00180844  1.58286005 21.76490336
   3.17932127  1.58286005 21.76490336
   6.35683411  1.58286005 21.76490336
   1.59614328  1.50355817 24.95657461
   4.77365612  1.50355817 24.95657461
   7.95116895  1.50355817 24.95657461
   0.01067103  4.68889904 24.95286040
   3.18818386  4.68889904 24.95286040
   6.36569670  4.68889904 24.95286040
   9.52580465  4.76620652  7.57303663
   3.17077898  4.76620652  7.57303663
   6.34829181  4.76620652  7.57303663
   1.57948565  0.47634422  8.74281074
   4.75699848  0.47634422  8.74281074
   7.93451132  0.47634422  8.74281074
   9.52646230  4.94662989 10.19058851
   3.17143663  4.94662989 10.19058851
   6.34894946  4.94662989 10.19058851
   1.57906686  2.93025367  9.00759403
   4.75657969  2.93025367  9.00759403
   7.93409253  2.93025367  9.00759403
   0.00036907  1.54156628 10.92329724
   3.17788190  1.54156628 10.92329724
   6.35539474  1.54156628 10.92329724
   1.58744115  3.58700325 12.13045281
   4.76495399  3.58700325 12.13045281
   7.94246682  3.58700325 12.13045281
   9.53239098  1.62595057 13.38556091
   3.17736531  1.62595057 13.38556091
   6.35487814  1.62595057 13.38556091
   1.58740550  6.04174645 12.19126490
   4.76491833  6.04174645 12.19126490
   7.94243117  6.04174645 12.19126490
   0.00000000  4.80171885 14.13814156
   3.17751283  4.80171885 14.13814156
   6.35502567  4.80171885 14.13814156
   1.58875642  0.37321418 15.36550033
   4.76626925  0.37321418 15.36550033
   7.94378209  0.37321418 15.36550033
   0.00000000  4.80171885 16.59285910
   3.17751283  4.80171885 16.59285910
   6.35502567  4.80171885 16.59285910
   1.58875642  2.82793172 15.36550033
   4.76626925  2.82793172 15.36550033
   7.94378209  2.82793172 15.36550033
   0.00000000  1.60057295 17.33928746
   3.17751283  1.60057295 17.33928746
   6.35502567  1.60057295 17.33928746
   1.58875642  3.57436009 18.56664623
   4.76626925  3.57436009 18.56664623
   7.94378209  3.57436009 18.56664623
   0.00000000  1.60057295 19.79400500
   3.17751283  1.60057295 19.79400500
   6.35502567  1.60057295 19.79400500
   1.58875642  6.02907762 18.56664623
   4.76626925  6.02907762 18.56664623
   7.94378209  6.02907762 18.56664623
   0.00014752  4.77634123 20.54658565
   3.17766036  4.77634123 20.54658565
   6.35517319  4.77634123 20.54658565
   1.59010733  0.36054535 21.74088166
   4.76762017  0.36054535 21.74088166
   7.94513300  0.36054535 21.74088166
   9.53216944  4.86072552 23.00884932
   3.17714377  4.86072552 23.00884932
   6.35465660  4.86072552 23.00884932
   1.59007168  2.81528856 21.80169375
   4.76758452  2.81528856 21.80169375
   7.94509735  2.81528856 21.80169375
   0.00607621  1.45566192 23.74155805
   3.18358904  1.45566192 23.74155805
   6.36110188  1.45566192 23.74155805
   1.59844598  3.47203813 24.92455253
   4.77595881  3.47203813 24.92455253
   7.95347165  3.47203813 24.92455253
   0.00673385  1.63608528 26.35910993
   3.18424669  1.63608528 26.35910993
   6.36175952  1.63608528 26.35910993
   1.59802719  5.92594758 25.18933582
   4.77554002  5.92594758 25.18933582
   7.95305286  5.92594758 25.18933582
   9.48136112  2.18573928  6.79515515
   0.05117738  4.21655252 27.13690021
   3.12633546  2.18573928  6.79515515
   6.40620305  4.21655252 27.13690021
   6.30384829  2.18573928  6.79515515
   3.22869021  4.21655252 27.13690021
 


--------------------------------------------------------------------------------------------------------


 k-point   1 :   0.0000 0.0000 0.0000  plane waves:   87751
 k-point   2 :   0.1667-0.0000 0.0000  plane waves:   87701
 k-point   3 :   0.3333-0.0000 0.0000  plane waves:   87761
 k-point   4 :   0.5000-0.0000 0.0000  plane waves:   87898
 k-point   5 :   0.0000 0.1250 0.0000  plane waves:   87793
 k-point   6 :   0.1667 0.1250 0.0000  plane waves:   87757
 k-point   7 :  -0.1667 0.1250 0.0000  plane waves:   87757
 k-point   8 :   0.3333 0.1250 0.0000  plane waves:   87759
 k-point   9 :  -0.3333 0.1250 0.0000  plane waves:   87759
 k-point  10 :   0.5000 0.1250 0.0000  plane waves:   87746
 k-point  11 :   0.0000 0.2500 0.0000  plane waves:   87795
 k-point  12 :   0.1667 0.2500 0.0000  plane waves:   87724
 k-point  13 :  -0.1667 0.2500 0.0000  plane waves:   87724
 k-point  14 :   0.3333 0.2500 0.0000  plane waves:   87673
 k-point  15 :  -0.3333 0.2500 0.0000  plane waves:   87673
 k-point  16 :   0.5000 0.2500 0.0000  plane waves:   87658
 k-point  17 :   0.0000 0.3750 0.0000  plane waves:   87722
 k-point  18 :   0.1667 0.3750 0.0000  plane waves:   87696
 k-point  19 :  -0.1667 0.3750 0.0000  plane waves:   87696
 k-point  20 :   0.3333 0.3750 0.0000  plane waves:   87665
 k-point  21 :  -0.3333 0.3750 0.0000  plane waves:   87665
 k-point  22 :   0.5000 0.3750 0.0000  plane waves:   87624
 k-point  23 :   0.0000 0.5000 0.0000  plane waves:   87712
 k-point  24 :   0.1667 0.5000 0.0000  plane waves:   87774
 k-point  25 :   0.3333 0.5000 0.0000  plane waves:   87648
 k-point  26 :   0.5000 0.5000 0.0000  plane waves:   87676

 maximum and minimum number of plane-waves per node :     17658    17472

 maximum number of plane-waves:     87898
 maximum index in each direction: 
   IXMAX=   17   IYMAX=   11   IZMAX=  103
   IXMIN=  -17   IYMIN=  -12   IZMIN= -103


 real space projection operators:
  total allocation   :     551406.00 KBytes
  max/ min on nodes  :     112055.76     107631.50


 parallel 3D FFT for wavefunctions:
    minimum data exchange during FFTs selected (reduces bandwidth)
 parallel 3D FFT for charge:
    minimum data exchange during FFTs selected (reduces bandwidth)


 total amount of memory used by VASP MPI-rank0  1163907. kBytes
=======================================================================

   base      :      30000. kBytes
   nonlr-proj:     200063. kBytes
   fftplans  :     107811. kBytes
   grid      :     129874. kBytes
   one-center:       1752. kBytes
   wavefun   :     694407. kBytes
 
     INWAV:  cpu time      0.0000: real time      0.0002
 Broyden mixing: mesh for mixing (old mesh)
   NGX = 35   NGY = 23   NGZ =207
  (NGX  =216   NGY  =144   NGZ  =***)
  gives a total of 166635 points

 initial charge density was supplied:
 charge density of overlapping atoms calculated
 number of electron    1098.0000000 magnetization     132.0000000
 keeping initial charge density in first step


--------------------------------------------------------------------------------------------------------


 Maximum index for non-local projection operator         5810
 Maximum index for augmentation-charges         9439 (set IRDMAX)


--------------------------------------------------------------------------------------------------------


 First call to EWALD:  gamma=   0.117
 Maximum number of real-space cells 4x 6x 1
 Maximum number of reciprocal cells 2x 1x 9

    FEWALD:  cpu time      0.0049: real time      0.0049


--------------------------------------- Iteration      1(   1)  ---------------------------------------


    POTLOK:  cpu time      1.0353: real time      1.0997
    SETDIJ:  cpu time      2.7722: real time      2.7792
     EDDAV:  cpu time   1242.1007: real time   1245.9836
       DOS:  cpu time      0.0209: real time      0.0210
    --------------------------------------------
      LOOP:  cpu time   1245.9293: real time   1249.8837

 eigenvalue-minimisations  : 91152
 total energy-change (2. order) : 0.1416483E+05  (-0.6200465E+05)
 number of electron    1098.0000000 magnetization     132.0000000
 augmentation part     1098.0000000 magnetization     132.0000000

 Free energy of the ion-electron system (eV)
  ---------------------------------------------------
  alpha Z        PSCENC =      2284.60206262
  Ewald energy   TEWEN  =   3388025.49475600
  -Hartree energ DENC   =  -3513234.19500452
  -exchange      EXHF   =         0.00000000
  -V(xc)+E(xc)   XCENC  =      5112.26665498
  PAW double counting   =    114645.26672616  -112167.04583207
  entropy T*S    EENTRO =        -0.05799149
  eigenvalues    EBANDS =     -8264.22365503
  atomic energy  EATOM  =    137762.72039947
  Solvation  Ecorr_sol  =         0.00000000
  ---------------------------------------------------
  free energy    TOTEN  =     14164.82811612 eV

  energy without entropy =    14164.88610761  energy(sigma->0) =    14164.85711187


--------------------------------------------------------------------------------------------------------




--------------------------------------- Iteration      1(   2)  ---------------------------------------


     EDDAV:  cpu time   1389.8931: real time   1397.2108
       DOS:  cpu time      0.0220: real time      0.0220
    --------------------------------------------
      LOOP:  cpu time   1389.9151: real time   1397.2329

 eigenvalue-minimisations  :104752
 total energy-change (2. order) :-0.1378218E+05  (-0.1308738E+05)
 number of electron    1098.0000000 magnetization     132.0000000
 augmentation part     1098.0000000 magnetization     132.0000000

 Free energy of the ion-electron system (eV)
  ---------------------------------------------------
  alpha Z        PSCENC =      2284.60206262
  Ewald energy   TEWEN  =   3388025.49475600
  -Hartree energ DENC   =  -3513234.19500452
  -exchange      EXHF   =         0.00000000
  -V(xc)+E(xc)   XCENC  =      5112.26665498
  PAW double counting   =    114645.26672616  -112167.04583207
  entropy T*S    EENTRO =        -0.05046429
  eigenvalues    EBANDS =    -22046.40953704
  atomic energy  EATOM  =    137762.72039947
  Solvation  Ecorr_sol  =         0.00000000
  ---------------------------------------------------
  free energy    TOTEN  =       382.64976132 eV

  energy without entropy =      382.70022561  energy(sigma->0) =      382.67499346


--------------------------------------------------------------------------------------------------------




--------------------------------------- Iteration      1(   3)  ---------------------------------------


     EDDAV:  cpu time   1262.2778: real time   1268.2925
       DOS:  cpu time      0.0198: real time      0.0524
    --------------------------------------------
      LOOP:  cpu time   1262.2976: real time   1268.3449

 eigenvalue-minimisations  : 92880
 total energy-change (2. order) :-0.1394246E+04  (-0.1358698E+04)
 number of electron    1098.0000000 magnetization     132.0000000
 augmentation part     1098.0000000 magnetization     132.0000000

 Free energy of the ion-electron system (eV)
  ---------------------------------------------------
  alpha Z        PSCENC =      2284.60206262
  Ewald energy   TEWEN  =   3388025.49475600
  -Hartree energ DENC   =  -3513234.19500452
  -exchange      EXHF   =         0.00000000
  -V(xc)+E(xc)   XCENC  =      5112.26665498
  PAW double counting   =    114645.26672616  -112167.04583207
  entropy T*S    EENTRO =        -0.06482648
  eigenvalues    EBANDS =    -23440.64082241
  atomic energy  EATOM  =    137762.72039947
  Solvation  Ecorr_sol  =         0.00000000
  ---------------------------------------------------
  free energy    TOTEN  =     -1011.59588624 eV

  energy without entropy =    -1011.53105976  energy(sigma->0) =    -1011.56347300


--------------------------------------------------------------------------------------------------------




--------------------------------------- Iteration      1(   4)  ---------------------------------------


     EDDAV:  cpu time   1409.3214: real time   1412.6968
       DOS:  cpu time      0.0227: real time      0.0228
    --------------------------------------------
      LOOP:  cpu time   1409.3439: real time   1412.7192

 eigenvalue-minimisations  :106608
 total energy-change (2. order) :-0.5606484E+02  (-0.5467749E+02)
 number of electron    1098.0000000 magnetization     132.0000000
 augmentation part     1098.0000000 magnetization     132.0000000

 Free energy of the ion-electron system (eV)
  ---------------------------------------------------
  alpha Z        PSCENC =      2284.60206262
  Ewald energy   TEWEN  =   3388025.49475600
  -Hartree energ DENC   =  -3513234.19500452
  -exchange      EXHF   =         0.00000000
  -V(xc)+E(xc)   XCENC  =      5112.26665498
  PAW double counting   =    114645.26672616  -112167.04583207
  entropy T*S    EENTRO =        -0.06435771
  eigenvalues    EBANDS =    -23496.70612971
  atomic energy  EATOM  =    137762.72039947
  Solvation  Ecorr_sol  =         0.00000000
  ---------------------------------------------------
  free energy    TOTEN  =     -1067.66072477 eV

  energy without entropy =    -1067.59636706  energy(sigma->0) =    -1067.62854591


--------------------------------------------------------------------------------------------------------




--------------------------------------- Iteration      1(   5)  ---------------------------------------


     EDDAV:  cpu time   1347.3736: real time   1350.5966
       DOS:  cpu time      0.0200: real time      0.0200
    --------------------------------------------
      LOOP:  cpu time   1347.3935: real time   1350.6166

 eigenvalue-minimisations  :100624
 total energy-change (2. order) :-0.1733589E+01  (-0.1706740E+01)
 number of electron    1098.0000000 magnetization     132.0000000
 augmentation part     1098.0000000 magnetization     132.0000000

 Free energy of the ion-electron system (eV)
  ---------------------------------------------------
  alpha Z        PSCENC =      2284.60206262
  Ewald energy   TEWEN  =   3388025.49475600
  -Hartree energ DENC   =  -3513234.19500452
  -exchange      EXHF   =         0.00000000
  -V(xc)+E(xc)   XCENC  =      5112.26665498
  PAW double counting   =    114645.26672616  -112167.04583207
  entropy T*S    EENTRO =        -0.06398613
  eigenvalues    EBANDS =    -23498.44008990
  atomic energy  EATOM  =    137762.72039947
  Solvation  Ecorr_sol  =         0.00000000
  ---------------------------------------------------
  free energy    TOTEN  =     -1069.39431338 eV

  energy without entropy =    -1069.33032725  energy(sigma->0) =    -1069.36232032


--------------------------------------------------------------------------------------------------------




--------------------------------------- Iteration      1(   6)  ---------------------------------------


     EDDAV:  cpu time   1413.1786: real time   1416.5626
       DOS:  cpu time      0.0199: real time      0.0209
    --------------------------------------------
      LOOP:  cpu time   1413.1997: real time   1416.5847

 eigenvalue-minimisations  :106928
 total energy-change (2. order) :-0.7462917E-01  (-0.7434052E-01)
 number of electron    1098.0000000 magnetization     132.0000000
 augmentation part     1098.0000000 magnetization     132.0000000

 Free energy of the ion-electron system (eV)
  ---------------------------------------------------
  alpha Z        PSCENC =      2284.60206262
  Ewald energy   TEWEN  =   3388025.49475600
  -Hartree energ DENC   =  -3513234.19500452
  -exchange      EXHF   =         0.00000000
  -V(xc)+E(xc)   XCENC  =      5112.26665498
  PAW double counting   =    114645.26672616  -112167.04583207
  entropy T*S    EENTRO =        -0.06399655
  eigenvalues    EBANDS =    -23498.51470865
  atomic energy  EATOM  =    137762.72039947
  Solvation  Ecorr_sol  =         0.00000000
  ---------------------------------------------------
  free energy    TOTEN  =     -1069.46894255 eV

  energy without entropy =    -1069.40494601  energy(sigma->0) =    -1069.43694428


--------------------------------------------------------------------------------------------------------




--------------------------------------- Iteration      1(   7)  ---------------------------------------


     EDDAV:  cpu time   1339.6365: real time   1342.8577
       DOS:  cpu time      0.0224: real time      0.0224
    --------------------------------------------
      LOOP:  cpu time   1339.6577: real time   1342.8788

 eigenvalue-minimisations  :100064
 total energy-change (2. order) :-0.3457004E-02  (-0.3452050E-02)
 number of electron    1098.0000000 magnetization     132.0000000
 augmentation part     1098.0000000 magnetization     132.0000000

 Free energy of the ion-electron system (eV)
  ---------------------------------------------------
  alpha Z        PSCENC =      2284.60206262
  Ewald energy   TEWEN  =   3388025.49475600
  -Hartree energ DENC   =  -3513234.19500452
  -exchange      EXHF   =         0.00000000
  -V(xc)+E(xc)   XCENC  =      5112.26665498
  PAW double counting   =    114645.26672616  -112167.04583207
  entropy T*S    EENTRO =        -0.06399774
  eigenvalues    EBANDS =    -23498.51816447
  atomic energy  EATOM  =    137762.72039947
  Solvation  Ecorr_sol  =         0.00000000
  ---------------------------------------------------
  free energy    TOTEN  =     -1069.47239956 eV

  energy without entropy =    -1069.40840182  energy(sigma->0) =    -1069.44040069


--------------------------------------------------------------------------------------------------------




--------------------------------------- Iteration      1(   8)  ---------------------------------------


     EDDAV:  cpu time   1349.1421: real time   1352.3678
       DOS:  cpu time      0.0190: real time      0.0191
    CHARGE:  cpu time     67.7321: real time     68.0424
    MIXING:  cpu time      0.0603: real time      0.0606
    --------------------------------------------
      LOOP:  cpu time   1416.9536: real time   1420.4900

 eigenvalue-minimisations  :100960
 total energy-change (2. order) :-0.2071629E-03  (-0.2069781E-03)
 number of electron    1098.0000002 magnetization     129.9712194
 augmentation part       48.6493554 magnetization     108.6209343

 Broyden mixing:
  rms(total) = 0.33944E+02    rms(broyden)= 0.33942E+02
  rms(prec ) = 0.33978E+02
  weight for this iteration     100.00

 Free energy of the ion-electron system (eV)
  ---------------------------------------------------
  alpha Z        PSCENC =      2284.60206262
  Ewald energy   TEWEN  =   3388025.49475600
  -Hartree energ DENC   =  -3513234.19500452
  -exchange      EXHF   =         0.00000000
  -V(xc)+E(xc)   XCENC  =      5112.26665498
  PAW double counting   =    114645.26672616  -112167.04583207
  entropy T*S    EENTRO =        -0.06399786
  eigenvalues    EBANDS =    -23498.51837151
  atomic energy  EATOM  =    137762.72039947
  Solvation  Ecorr_sol  =         0.00000000
  ---------------------------------------------------
  free energy    TOTEN  =     -1069.47260672 eV

  energy without entropy =    -1069.40860886  energy(sigma->0) =    -1069.44060779


--------------------------------------------------------------------------------------------------------




--------------------------------------- Iteration      1(   9)  ---------------------------------------


    POTLOK:  cpu time      1.0058: real time      1.0380
    SETDIJ:  cpu time      2.6363: real time      2.6729
     EDDAV:  cpu time   1295.6634: real time   1299.1016
       DOS:  cpu time      0.0242: real time      0.0251
    CHARGE:  cpu time     67.4469: real time     67.6199
    MIXING:  cpu time      0.0318: real time      0.8111
    --------------------------------------------
      LOOP:  cpu time   1366.8087: real time   1371.2690

 eigenvalue-minimisations  : 96096
 total energy-change (2. order) : 0.4102446E+03  (-0.1518224E+03)
 number of electron    1098.0000002 magnetization     127.3148137
 augmentation part       45.8570935 magnetization     102.8700955

 Broyden mixing:
  rms(total) = 0.25265E+02    rms(broyden)= 0.25265E+02
  rms(prec ) = 0.25270E+02
  weight for this iteration     100.00

 eigenvalues of (default mixing * dielectric matrix)
  average eigenvalue GAMMA=   0.9861
  0.9861

 Free energy of the ion-electron system (eV)
  ---------------------------------------------------
  alpha Z        PSCENC =      2284.60206262
  Ewald energy   TEWEN  =   3388025.49475600
  -Hartree energ DENC   =  -3512309.68667990
  -exchange      EXHF   =         0.00000000
  -V(xc)+E(xc)   XCENC  =      5242.77117056
  PAW double counting   =    138019.65246291  -135710.41332727
  entropy T*S    EENTRO =        -0.04894432
  eigenvalues    EBANDS =    -23974.31991806
  atomic energy  EATOM  =    137762.72039947
  Solvation  Ecorr_sol  =         0.00000000
  ---------------------------------------------------
  free energy    TOTEN  =      -659.22801799 eV

  energy without entropy =     -659.17907368  energy(sigma->0) =     -659.20354584


--------------------------------------------------------------------------------------------------------




--------------------------------------- Iteration      1(  10)  ---------------------------------------


    POTLOK:  cpu time      1.0133: real time      1.0396
    SETDIJ:  cpu time      2.7400: real time      2.7489
     EDDAV:  cpu time   1298.1703: real time   1301.2747
       DOS:  cpu time      0.0192: real time      0.0193
    CHARGE:  cpu time     67.4863: real time     67.6492
    MIXING:  cpu time      0.0245: real time      0.1476
    --------------------------------------------
      LOOP:  cpu time   1369.4532: real time   1372.8789

 eigenvalue-minimisations  : 96320
 total energy-change (2. order) : 0.3054354E+02  (-0.2051352E+02)
 number of electron    1098.0000002 magnetization     123.5864063
 augmentation part       46.8586391 magnetization     100.9191048

 Broyden mixing:
  rms(total) = 0.13999E+02    rms(broyden)= 0.13999E+02
  rms(prec ) = 0.14014E+02
  weight for this iteration     100.00

 eigenvalues of (default mixing * dielectric matrix)
  average eigenvalue GAMMA=   1.3985
  2.2232  0.5738

 Free energy of the ion-electron system (eV)
  ---------------------------------------------------
  alpha Z        PSCENC =      2284.60206262
  Ewald energy   TEWEN  =   3388025.49475600
  -Hartree energ DENC   =  -3512854.99167218
  -exchange      EXHF   =         0.00000000
  -V(xc)+E(xc)   XCENC  =      5247.88379296
  PAW double counting   =    176230.84146000  -173790.76897956
  entropy T*S    EENTRO =        -0.04412389
  eigenvalues    EBANDS =    -23534.42217836
  atomic energy  EATOM  =    137762.72039947
  Solvation  Ecorr_sol  =         0.00000000
  ---------------------------------------------------
  free energy    TOTEN  =      -628.68448295 eV

  energy without entropy =     -628.64035906  energy(sigma->0) =     -628.66242100


--------------------------------------------------------------------------------------------------------




--------------------------------------- Iteration      1(  11)  ---------------------------------------


    POTLOK:  cpu time      1.0146: real time      1.0175
    SETDIJ:  cpu time      2.6938: real time      2.7002
     EDDAV:  cpu time   1253.1820: real time   1256.1817
       DOS:  cpu time      0.0154: real time      0.0154
    CHARGE:  cpu time     67.5765: real time     67.7394
    MIXING:  cpu time      0.0196: real time      0.0197
    --------------------------------------------
      LOOP:  cpu time   1324.5018: real time   1327.6739

 eigenvalue-minimisations  : 92176
 total energy-change (2. order) : 0.3275755E+02  (-0.7294226E+01)
 number of electron    1098.0000002 magnetization     121.6607349
 augmentation part       46.7715673 magnetization     104.7515283

 Broyden mixing:
  rms(total) = 0.51889E+01    rms(broyden)= 0.51868E+01
  rms(prec ) = 0.52630E+01
  weight for this iteration     100.00

 eigenvalues of (default mixing * dielectric matrix)
  average eigenvalue GAMMA=   1.3423
  2.6353  0.7782  0.6133

 Free energy of the ion-electron system (eV)
  ---------------------------------------------------
  alpha Z        PSCENC =      2284.60206262
  Ewald energy   TEWEN  =   3388025.49475600
  -Hartree energ DENC   =  -3513240.98280059
  -exchange      EXHF   =         0.00000000
  -V(xc)+E(xc)   XCENC  =      5273.02612692
  PAW double counting   =    208304.48752582  -205834.87191274
  entropy T*S    EENTRO =        -0.02880938
  eigenvalues    EBANDS =    -23170.37427942
  atomic energy  EATOM  =    137762.72039947
  Solvation  Ecorr_sol  =         0.00000000
  ---------------------------------------------------
  free energy    TOTEN  =      -595.92693130 eV

  energy without entropy =     -595.89812192  energy(sigma->0) =     -595.91252661


--------------------------------------------------------------------------------------------------------




--------------------------------------- Iteration      1(  12)  ---------------------------------------


    POTLOK:  cpu time      1.0355: real time      1.0381
    SETDIJ:  cpu time      2.6479: real time      2.6542
     EDDAV:  cpu time   1350.6902: real time   1353.9210
       DOS:  cpu time      0.0186: real time      0.0194
    CHARGE:  cpu time     67.5706: real time     67.7336
    MIXING:  cpu time      0.0212: real time      0.0352
    --------------------------------------------
      LOOP:  cpu time   1421.9843: real time   1425.4019

 eigenvalue-minimisations  :101088
 total energy-change (2. order) : 0.3572519E+02  (-0.7400302E+01)
 number of electron    1098.0000002 magnetization     120.6141545
 augmentation part       46.5903053 magnetization     101.9850661

 Broyden mixing:
  rms(total) = 0.49130E+01    rms(broyden)= 0.49091E+01
  rms(prec ) = 0.50388E+01
  weight for this iteration     100.00

 eigenvalues of (default mixing * dielectric matrix)
  average eigenvalue GAMMA=   1.1398
  2.7073  0.8337  0.6147  0.4034

 Free energy of the ion-electron system (eV)
  ---------------------------------------------------
  alpha Z        PSCENC =      2284.60206262
  Ewald energy   TEWEN  =   3388025.49475600
  -Hartree energ DENC   =  -3513207.06017391
  -exchange      EXHF   =         0.00000000
  -V(xc)+E(xc)   XCENC  =      5298.07118807
  PAW double counting   =    210078.13108958  -207622.69350091
  entropy T*S    EENTRO =        -0.03637010
  eigenvalues    EBANDS =    -23179.43118718
  atomic energy  EATOM  =    137762.72039947
  Solvation  Ecorr_sol  =         0.00000000
  ---------------------------------------------------
  free energy    TOTEN  =      -560.20173636 eV

  energy without entropy =     -560.16536626  energy(sigma->0) =     -560.18355131


--------------------------------------------------------------------------------------------------------




--------------------------------------- Iteration      1(  13)  ---------------------------------------


    POTLOK:  cpu time      1.0251: real time      1.0472
    SETDIJ:  cpu time      2.6704: real time      2.6774
     EDDAV:  cpu time   1291.2883: real time   1294.3775
       DOS:  cpu time      0.0206: real time      0.0206
    CHARGE:  cpu time     67.6209: real time     67.7840
    MIXING:  cpu time      0.0277: real time      0.0942
    --------------------------------------------
      LOOP:  cpu time   1362.6527: real time   1366.0006

 eigenvalue-minimisations  : 95680
 total energy-change (2. order) : 0.1882821E+02  (-0.3441812E+01)
 number of electron    1098.0000002 magnetization     118.7418895
 augmentation part       46.3190087 magnetization      96.7709011

 Broyden mixing:
  rms(total) = 0.29399E+01    rms(broyden)= 0.29373E+01
  rms(prec ) = 0.29462E+01
  weight for this iteration     100.00

 eigenvalues of (default mixing * dielectric matrix)
  average eigenvalue GAMMA=   1.0307
  2.7487  0.9174  0.5899  0.5899  0.3078

 Free energy of the ion-electron system (eV)
  ---------------------------------------------------
  alpha Z        PSCENC =      2284.60206262
  Ewald energy   TEWEN  =   3388025.49475600
  -Hartree energ DENC   =  -3513329.00074671
  -exchange      EXHF   =         0.00000000
  -V(xc)+E(xc)   XCENC  =      5306.30810807
  PAW double counting   =    210772.02730820  -208315.57377996
  entropy T*S    EENTRO =        -0.05261446
  eigenvalues    EBANDS =    -23047.89901709
  atomic energy  EATOM  =    137762.72039947
  Solvation  Ecorr_sol  =         0.00000000
  ---------------------------------------------------
  free energy    TOTEN  =      -541.37352385 eV

  energy without entropy =     -541.32090939  energy(sigma->0) =     -541.34721662


--------------------------------------------------------------------------------------------------------




--------------------------------------- Iteration      1(  14)  ---------------------------------------


    POTLOK:  cpu time      1.2432: real time      1.2463
    SETDIJ:  cpu time      2.6961: real time      2.7028
     EDDAV:  cpu time   1179.5179: real time   1182.3383
       DOS:  cpu time      0.0223: real time      0.0224
    CHARGE:  cpu time     68.1178: real time     68.8451
    MIXING:  cpu time      0.0345: real time      0.4110
    --------------------------------------------
      LOOP:  cpu time   1251.6322: real time   1255.5666

 eigenvalue-minimisations  : 85216
 total energy-change (2. order) :-0.3212823E+02  (-0.5668142E+00)
 number of electron    1098.0000002 magnetization     115.2386892
 augmentation part       46.1286417 magnetization      90.9491525

 Broyden mixing:
  rms(total) = 0.25193E+01    rms(broyden)= 0.25190E+01
  rms(prec ) = 0.25212E+01
  weight for this iteration     100.00

 eigenvalues of (default mixing * dielectric matrix)
  average eigenvalue GAMMA=   1.0522
  2.7605  1.0297  0.8050  0.8050  0.5948  0.3181

 Free energy of the ion-electron system (eV)
  ---------------------------------------------------
  alpha Z        PSCENC =      2284.60206262
  Ewald energy   TEWEN  =   3388025.49475600
  -Hartree energ DENC   =  -3513419.80246869
  -exchange      EXHF   =         0.00000000
  -V(xc)+E(xc)   XCENC  =      5282.57200665
  PAW double counting   =    210870.90024941  -208411.84050345
  entropy T*S    EENTRO =        -0.05269555
  eigenvalues    EBANDS =    -22968.09556361
  atomic energy  EATOM  =    137762.72039947
  Solvation  Ecorr_sol  =         0.00000000
  ---------------------------------------------------
  free energy    TOTEN  =      -573.50175714 eV

  energy without entropy =     -573.44906160  energy(sigma->0) =     -573.47540937


--------------------------------------------------------------------------------------------------------




--------------------------------------- Iteration      1(  15)  ---------------------------------------


    POTLOK:  cpu time      1.0415: real time      1.1070
    SETDIJ:  cpu time      2.6530: real time      2.6759
     EDDAV:  cpu time   1272.7482: real time   1276.9337
       DOS:  cpu time      0.0196: real time      0.0201
    CHARGE:  cpu time     67.7288: real time     67.8927
    MIXING:  cpu time      0.0188: real time      0.0188
    --------------------------------------------
      LOOP:  cpu time   1344.2094: real time   1348.6476

 eigenvalue-minimisations  : 93712
 total energy-change (2. order) :-0.4966328E+02  (-0.1231913E+01)
 number of electron    1098.0000002 magnetization     110.8303494
 augmentation part       45.8395608 magnetization      87.1333890

 Broyden mixing:
  rms(total) = 0.23905E+01    rms(broyden)= 0.23904E+01
  rms(prec ) = 0.23928E+01
  weight for this iteration     100.00

 eigenvalues of (default mixing * dielectric matrix)
  average eigenvalue GAMMA=   1.1246
  2.7809  2.0518  0.7391  0.7391  0.6235  0.6235  0.3139

 Free energy of the ion-electron system (eV)
  ---------------------------------------------------
  alpha Z        PSCENC =      2284.60206262
  Ewald energy   TEWEN  =   3388025.49475600
  -Hartree energ DENC   =  -3513550.19076057
  -exchange      EXHF   =         0.00000000
  -V(xc)+E(xc)   XCENC  =      5255.91093489
  PAW double counting   =    209686.35249906  -207229.81798574
  entropy T*S    EENTRO =        -0.04923906
  eigenvalues    EBANDS =    -22858.18770076
  atomic energy  EATOM  =    137762.72039947
  Solvation  Ecorr_sol  =         0.00000000
  ---------------------------------------------------
  free energy    TOTEN  =      -623.16503407 eV

  energy without entropy =     -623.11579502  energy(sigma->0) =     -623.14041454


--------------------------------------------------------------------------------------------------------




--------------------------------------- Iteration      1(  16)  ---------------------------------------


    POTLOK:  cpu time      1.0404: real time      1.0603
    SETDIJ:  cpu time      2.6586: real time      2.6649
     EDDAV:  cpu time   1180.1445: real time   1182.9644
       DOS:  cpu time      0.0194: real time      0.0194
    CHARGE:  cpu time     67.7690: real time     67.9332
    MIXING:  cpu time      0.0213: real time      0.0213
    --------------------------------------------
      LOOP:  cpu time   1251.6531: real time   1254.6635

 eigenvalue-minimisations  : 85248
 total energy-change (2. order) :-0.3258417E+02  (-0.7870213E+00)
[...]
      7.94378      0.37321     15.36550        -0.000324      0.052660     -0.025765
      0.00000      4.80172     16.59286        -0.000256      0.002611     -0.029708
      3.17751      4.80172     16.59286        -0.000256      0.002611     -0.029708
      6.35503      4.80172     16.59286        -0.000256      0.002611     -0.029708
      1.58876      2.82793     15.36550         0.000360     -0.041113      0.012050
      4.76627      2.82793     15.36550         0.000360     -0.041113      0.012050
      7.94378      2.82793     15.36550         0.000360     -0.041113      0.012050
      0.00000      1.60057     17.33929         0.000256     -0.002611      0.029708
      3.17751      1.60057     17.33929         0.000256     -0.002611      0.029708
      6.35503      1.60057     17.33929         0.000256     -0.002611      0.029708
      1.58876      3.57436     18.56665        -0.000360      0.041113     -0.012050
      4.76627      3.57436     18.56665        -0.000360      0.041113     -0.012050
      7.94378      3.57436     18.56665        -0.000360      0.041113     -0.012050
      0.00000      1.60057     19.79400         0.001833      0.080536     -0.015853
      3.17751      1.60057     19.79400         0.001833      0.080536     -0.015853
      6.35503      1.60057     19.79400         0.001833      0.080536     -0.015853
      1.58876      6.02908     18.56665         0.000324     -0.052660      0.025765
      4.76627      6.02908     18.56665         0.000324     -0.052660      0.025765
      7.94378      6.02908     18.56665         0.000324     -0.052660      0.025765
      0.00015      4.77634     20.54659         0.000109     -0.001258      0.004394
      3.17766      4.77634     20.54659         0.000109     -0.001258      0.004394
      6.35517      4.77634     20.54659         0.000109     -0.001258      0.004394
      1.59011      0.36055     21.74088        -0.000242     -0.008373      0.005027
      4.76762      0.36055     21.74088        -0.000242     -0.008373      0.005027
      7.94513      0.36055     21.74088        -0.000242     -0.008373      0.005027
      9.53217      4.86073     23.00885        -0.001444      0.009008      0.004958
      3.17714      4.86073     23.00885        -0.001444      0.009008      0.004958
      6.35466      4.86073     23.00885        -0.001444      0.009008      0.004958
      1.59007      2.81529     21.80169        -0.001473      0.007193      0.008607
      4.76758      2.81529     21.80169        -0.001473      0.007193      0.008607
      7.94510      2.81529     21.80169        -0.001473      0.007193      0.008607
      0.00608      1.45566     23.74156         0.003038      0.000611      0.016445
      3.18359      1.45566     23.74156         0.003038      0.000611      0.016445
      6.36110      1.45566     23.74156         0.003038      0.000611      0.016445
      1.59845      3.47204     24.92455         0.002098     -0.032684     -0.003520
      4.77596      3.47204     24.92455         0.002098     -0.032684     -0.003520
      7.95347      3.47204     24.92455         0.002098     -0.032684     -0.003520
      0.00673      1.63609     26.35911         0.000864     -0.014548      0.003750
      3.18425      1.63609     26.35911         0.000864     -0.014548      0.003750
      6.36176      1.63609     26.35911         0.000864     -0.014548      0.003750
      1.59803      5.92595     25.18934         0.001712      0.024006     -0.006157
      4.77554      5.92595     25.18934         0.001712      0.024006     -0.006157
      7.95305      5.92595     25.18934         0.001712      0.024006     -0.006157
      9.48136      2.18574      6.79516        -0.006229      0.004152      0.004419
      0.05118      4.21655     27.13690         0.006229     -0.004152     -0.004419
      3.12634      2.18574      6.79516        -0.006229      0.004152      0.004419
      6.40620      4.21655     27.13690         0.006229     -0.004152     -0.004419
      6.30385      2.18574      6.79516        -0.006229      0.004152      0.004419
      3.22869      4.21655     27.13690         0.006229     -0.004152     -0.004419
 -----------------------------------------------------------------------------------
    total drift:                                0.002520     -0.031332    -17.862642


--------------------------------------------------------------------------------------------------------



  FREE ENERGIE OF THE ION-ELECTRON SYSTEM (eV)
  ---------------------------------------------------
  free  energy   TOTEN  =      -892.03150024 eV

  energy  without entropy=     -891.95991337  energy(sigma->0) =     -891.99570680
 


--------------------------------------------------------------------------------------------------------


    POTLOK:  cpu time      3.7111: real time      3.8535


--------------------------------------------------------------------------------------------------------


     LOOP+:  cpu time  93285.5335: real time  93548.0200
    4ORBIT:  cpu time      0.0001: real time      0.0156



 total charge

# of ion       s       p       d       f       tot
--------------------------------------------------
    1        0.560   0.113   0.001   0.000   0.675
    2        0.560   0.113   0.001   0.000   0.675
    3        0.560   0.113   0.001   0.000   0.675
    4        0.560   0.113   0.001   0.000   0.675
    5        0.560   0.113   0.001   0.000   0.675
    6        0.560   0.113   0.001   0.000   0.675
    7        0.630   0.112   0.003   0.000   0.745
    8        0.630   0.112   0.003   0.000   0.745
    9        0.630   0.112   0.003   0.000   0.745
   10        0.630   0.112   0.003   0.000   0.745
   11        0.630   0.112   0.003   0.000   0.745
   12        0.630   0.112   0.003   0.000   0.745
   13        0.612   0.111   0.002   0.000   0.726
   14        0.612   0.111   0.002   0.000   0.726
   15        0.612   0.111   0.002   0.000   0.726
   16        0.612   0.111   0.002   0.000   0.726
   17        0.612   0.111   0.002   0.000   0.726
   18        0.612   0.111   0.002   0.000   0.726
   19        3.541   6.101   6.268   0.050  15.960
   20        3.541   6.101   6.268   0.050  15.960
   21        3.541   6.101   6.268   0.050  15.960
   22        3.559   6.099   6.276   0.050  15.985
   23        3.559   6.099   6.276   0.050  15.985
   24        3.559   6.099   6.276   0.050  15.985
   25        3.623   6.116   6.187   0.060  15.986
   26        3.623   6.116   6.187   0.060  15.986
   27        3.623   6.116   6.187   0.060  15.986
   28        3.635   6.117   6.183   0.060  15.995
   29        3.635   6.117   6.183   0.060  15.995
   30        3.635   6.117   6.183   0.060  15.995
   31        3.639   6.118   6.181   0.061  15.998
   32        3.639   6.118   6.181   0.061  15.998
   33        3.639   6.118   6.181   0.061  15.998
   34        3.637   6.118   6.180   0.060  15.995
   35        3.637   6.118   6.180   0.060  15.995
   36        3.637   6.118   6.180   0.060  15.995
   37        3.639   6.118   6.181   0.061  15.998
   38        3.639   6.118   6.181   0.061  15.998
   39        3.639   6.118   6.181   0.061  15.998
   40        3.637   6.118   6.180   0.060  15.995
   41        3.637   6.118   6.180   0.060  15.995
   42        3.637   6.118   6.180   0.060  15.995
   43        3.623   6.116   6.187   0.060  15.986
   44        3.623   6.116   6.187   0.060  15.986
   45        3.623   6.116   6.187   0.060  15.986
   46        3.635   6.117   6.183   0.060  15.995
   47        3.635   6.117   6.183   0.060  15.995
   48        3.635   6.117   6.183   0.060  15.995
   49        3.541   6.101   6.268   0.050  15.960
   50        3.541   6.101   6.268   0.050  15.960
   51        3.541   6.101   6.268   0.050  15.960
   52        3.559   6.099   6.276   0.050  15.985
   53        3.559   6.099   6.276   0.050  15.985
   54        3.559   6.099   6.276   0.050  15.985
   55        1.630   3.680   0.036   0.000   5.346
   56        1.630   3.680   0.036   0.000   5.346
   57        1.630   3.680   0.036   0.000   5.346
   58        1.626   3.586   0.034   0.000   5.247
   59        1.626   3.586   0.034   0.000   5.247
   60        1.626   3.586   0.034   0.000   5.247
   61        1.624   3.593   0.037   0.000   5.254
   62        1.624   3.593   0.037   0.000   5.254
   63        1.624   3.593   0.037   0.000   5.254
   64        1.626   3.607   0.038   0.000   5.272
   65        1.626   3.607   0.038   0.000   5.272
   66        1.626   3.607   0.038   0.000   5.272
   67        1.625   3.594   0.038   0.000   5.257
   68        1.625   3.594   0.038   0.000   5.257
   69        1.625   3.594   0.038   0.000   5.257
   70        1.628   3.591   0.035   0.000   5.255
   71        1.628   3.591   0.035   0.000   5.255
   72        1.628   3.591   0.035   0.000   5.255
   73        1.628   3.591   0.035   0.000   5.254
   74        1.628   3.591   0.035   0.000   5.254
   75        1.628   3.591   0.035   0.000   5.254
   76        1.628   3.599   0.036   0.000   5.264
   77        1.628   3.599   0.036   0.000   5.264
   78        1.628   3.599   0.036   0.000   5.264
   79        1.628   3.594   0.036   0.000   5.258
   80        1.628   3.594   0.036   0.000   5.258
   81        1.628   3.594   0.036   0.000   5.258
   82        1.628   3.596   0.036   0.000   5.259
   83        1.628   3.596   0.036   0.000   5.259
   84        1.628   3.596   0.036   0.000   5.259
   85        1.628   3.595   0.036   0.000   5.259
   86        1.628   3.595   0.036   0.000   5.259
   87        1.628   3.595   0.036   0.000   5.259
   88        1.628   3.596   0.036   0.000   5.260
   89        1.628   3.596   0.036   0.000   5.260
   90        1.628   3.596   0.036   0.000   5.260
   91        1.628   3.595   0.036   0.000   5.259
   92        1.628   3.595   0.036   0.000   5.259
   93        1.628   3.595   0.036   0.000   5.259
   94        1.628   3.596   0.036   0.000   5.260
   95        1.628   3.596   0.036   0.000   5.260
   96        1.628   3.596   0.036   0.000   5.260
   97        1.628   3.594   0.036   0.000   5.258
   98        1.628   3.594   0.036   0.000   5.258
   99        1.628   3.594   0.036   0.000   5.258
  100        1.628   3.596   0.036   0.000   5.259
  101        1.628   3.596   0.036   0.000   5.259
  102        1.628   3.596   0.036   0.000   5.259
  103        1.628   3.591   0.035   0.000   5.254
  104        1.628   3.591   0.035   0.000   5.254
  105        1.628   3.591   0.035   0.000   5.254
  106        1.628   3.599   0.036   0.000   5.264
  107        1.628   3.599   0.036   0.000   5.264
  108        1.628   3.599   0.036   0.000   5.264
  109        1.625   3.594   0.038   0.000   5.257
  110        1.625   3.594   0.038   0.000   5.257
  111        1.625   3.594   0.038   0.000   5.257
  112        1.628   3.591   0.035   0.000   5.255
  113        1.628   3.591   0.035   0.000   5.255
  114        1.628   3.591   0.035   0.000   5.255
  115        1.624   3.593   0.037   0.000   5.254
  116        1.624   3.593   0.037   0.000   5.254
  117        1.624   3.593   0.037   0.000   5.254
  118        1.626   3.607   0.038   0.000   5.272
  119        1.626   3.607   0.038   0.000   5.272
  120        1.626   3.607   0.038   0.000   5.272
  121        1.630   3.680   0.036   0.000   5.346
  122        1.630   3.680   0.036   0.000   5.346
  123        1.630   3.680   0.036   0.000   5.346
  124        1.626   3.586   0.034   0.000   5.247
  125        1.626   3.586   0.034   0.000   5.247
  126        1.626   3.586   0.034   0.000   5.247
  127        1.633   3.756   0.042   0.000   5.431
  128        1.633   3.756   0.042   0.000   5.431
  129        1.633   3.756   0.042   0.000   5.431
  130        1.633   3.756   0.042   0.000   5.431
  131        1.633   3.756   0.042   0.000   5.431
  132        1.633   3.756   0.042   0.000   5.431
--------------------------------------------------
tot        267.592 503.907 226.534   2.0461000.079



 magnetization (x)

# of ion       s       p       d       f       tot
--------------------------------------------------
    1        0.000  -0.000  -0.000   0.000   0.000
    2        0.000  -0.000  -0.000   0.000   0.000
    3        0.000  -0.000  -0.000   0.000   0.000
    4        0.000  -0.000  -0.000   0.000   0.000
    5        0.000  -0.000  -0.000   0.000   0.000
    6        0.000  -0.000  -0.000   0.000   0.000
    7        0.000  -0.000  -0.000   0.000   0.000
    8        0.000  -0.000  -0.000   0.000   0.000
    9        0.000  -0.000  -0.000   0.000   0.000
   10        0.000  -0.000  -0.000   0.000   0.000
   11        0.000  -0.000  -0.000   0.000   0.000
   12        0.000  -0.000  -0.000   0.000   0.000
   13        0.000  -0.000  -0.000   0.000   0.000
   14        0.000  -0.000  -0.000   0.000   0.000
   15        0.000  -0.000  -0.000   0.000   0.000
   16        0.000  -0.000  -0.000   0.000   0.000
   17        0.000  -0.000  -0.000   0.000   0.000
   18        0.000  -0.000  -0.000   0.000   0.000
   19        0.000   0.000   0.000   0.000   0.000
   20        0.000   0.000   0.000   0.000   0.000
   21        0.000   0.000   0.000   0.000   0.000
   22        0.000   0.000   0.000   0.000   0.000
   23        0.000   0.000   0.000   0.000   0.000
   24        0.000   0.000   0.000   0.000   0.000
   25        0.000   0.000   0.000   0.000   0.000
   26        0.000   0.000   0.000   0.000   0.000
   27        0.000   0.000   0.000   0.000   0.000
   28        0.000   0.000   0.000   0.000   0.000
   29        0.000   0.000   0.000   0.000   0.000
   30        0.000   0.000   0.000   0.000   0.000
   31        0.000   0.000   0.000   0.000   0.000
   32        0.000   0.000   0.000   0.000   0.000
   33        0.000   0.000   0.000   0.000   0.000
   34        0.000   0.000   0.000   0.000   0.000
   35        0.000   0.000   0.000   0.000   0.000
   36        0.000   0.000   0.000   0.000   0.000
   37        0.000   0.000   0.000   0.000   0.000
   38        0.000   0.000   0.000   0.000   0.000
   39        0.000   0.000   0.000   0.000   0.000
   40        0.000   0.000   0.000   0.000   0.000
   41        0.000   0.000   0.000   0.000   0.000
   42        0.000   0.000   0.000   0.000   0.000
   43        0.000   0.000   0.000   0.000   0.000
   44        0.000   0.000   0.000   0.000   0.000
   45        0.000   0.000   0.000   0.000   0.000
   46        0.000   0.000   0.000   0.000   0.000
   47        0.000   0.000   0.000   0.000   0.000
   48        0.000   0.000   0.000   0.000   0.000
   49        0.000   0.000   0.000   0.000   0.000
   50        0.000   0.000   0.000   0.000   0.000
   51        0.000   0.000   0.000   0.000   0.000
   52        0.000   0.000   0.000   0.000   0.000
   53        0.000   0.000   0.000   0.000   0.000
   54        0.000   0.000   0.000   0.000   0.000
   55       -0.000  -0.000   0.000   0.000  -0.000
   56       -0.000  -0.000   0.000   0.000  -0.000
   57       -0.000  -0.000   0.000   0.000  -0.000
   58       -0.000   0.000   0.000   0.000   0.000
   59       -0.000   0.000   0.000   0.000   0.000
   60       -0.000   0.000   0.000   0.000   0.000
   61       -0.000   0.000   0.000   0.000   0.000
   62       -0.000   0.000   0.000   0.000   0.000
   63       -0.000   0.000   0.000   0.000   0.000
   64       -0.000   0.000   0.000   0.000   0.000
   65       -0.000   0.000   0.000   0.000   0.000
   66       -0.000   0.000   0.000   0.000   0.000
   67       -0.000   0.000   0.000   0.000   0.000
   68       -0.000   0.000   0.000   0.000   0.000
   69       -0.000   0.000   0.000   0.000   0.000
   70       -0.000   0.000   0.000   0.000   0.000
   71       -0.000   0.000   0.000   0.000   0.000
   72       -0.000   0.000   0.000   0.000   0.000
   73       -0.000   0.000   0.000   0.000   0.000
   74       -0.000   0.000   0.000   0.000   0.000
   75       -0.000   0.000   0.000   0.000   0.000
   76       -0.000   0.000   0.000   0.000   0.000
   77       -0.000   0.000   0.000   0.000   0.000
   78       -0.000   0.000   0.000   0.000   0.000
   79       -0.000   0.000   0.000   0.000   0.000
   80       -0.000   0.000   0.000   0.000   0.000
   81       -0.000   0.000   0.000   0.000   0.000
   82       -0.000  -0.000   0.000   0.000  -0.000
   83       -0.000  -0.000   0.000   0.000  -0.000
   84       -0.000  -0.000   0.000   0.000  -0.000
   85       -0.000  -0.000   0.000   0.000  -0.000
   86       -0.000  -0.000   0.000   0.000  -0.000
   87       -0.000  -0.000   0.000   0.000  -0.000
   88       -0.000  -0.000   0.000   0.000  -0.000
   89       -0.000  -0.000   0.000   0.000  -0.000
   90       -0.000  -0.000   0.000   0.000  -0.000
   91       -0.000  -0.000   0.000   0.000  -0.000
   92       -0.000  -0.000   0.000   0.000  -0.000
   93       -0.000  -0.000   0.000   0.000  -0.000
   94       -0.000  -0.000   0.000   0.000  -0.000
   95       -0.000  -0.000   0.000   0.000  -0.000
   96       -0.000  -0.000   0.000   0.000  -0.000
   97       -0.000   0.000   0.000   0.000   0.000
   98       -0.000   0.000   0.000   0.000   0.000
   99       -0.000   0.000   0.000   0.000   0.000
  100       -0.000  -0.000   0.000   0.000  -0.000
  101       -0.000  -0.000   0.000   0.000  -0.000
  102       -0.000  -0.000   0.000   0.000  -0.000
  103       -0.000   0.000   0.000   0.000   0.000
  104       -0.000   0.000   0.000   0.000   0.000
  105       -0.000   0.000   0.000   0.000   0.000
  106       -0.000   0.000   0.000   0.000   0.000
  107       -0.000   0.000   0.000   0.000   0.000
  108       -0.000   0.000   0.000   0.000   0.000
  109       -0.000   0.000   0.000   0.000   0.000
  110       -0.000   0.000   0.000   0.000   0.000
  111       -0.000   0.000   0.000   0.000   0.000
  112       -0.000   0.000   0.000   0.000   0.000
  113       -0.000   0.000   0.000   0.000   0.000
  114       -0.000   0.000   0.000   0.000   0.000
  115       -0.000   0.000   0.000   0.000   0.000
  116       -0.000   0.000   0.000   0.000   0.000
  117       -0.000   0.000   0.000   0.000   0.000
  118       -0.000   0.000   0.000   0.000   0.000
  119       -0.000   0.000   0.000   0.000   0.000
  120       -0.000   0.000   0.000   0.000   0.000
  121       -0.000  -0.000   0.000   0.000  -0.000
  122       -0.000  -0.000   0.000   0.000  -0.000
  123       -0.000  -0.000   0.000   0.000  -0.000
  124       -0.000   0.000   0.000   0.000   0.000
  125       -0.000   0.000   0.000   0.000   0.000
  126       -0.000   0.000   0.000   0.000   0.000
  127       -0.000  -0.000   0.000   0.000  -0.000
  128       -0.000  -0.000   0.000   0.000  -0.000
  129       -0.000  -0.000   0.000   0.000  -0.000
  130       -0.000  -0.000   0.000   0.000  -0.000
  131       -0.000  -0.000   0.000   0.000  -0.000
  132       -0.000  -0.000   0.000   0.000  -0.000
--------------------------------------------------
tot          0.000   0.000   0.000   0.000   0.000
 

 total amount of memory used by VASP MPI-rank0  1163907. kBytes
=======================================================================

   base      :      30000. kBytes
   nonlr-proj:     200063. kBytes
   fftplans  :     107811. kBytes
   grid      :     129874. kBytes
   one-center:       1752. kBytes
   wavefun   :     694407. kBytes
 
  
  
 General timing and accounting informations for this job:
 ========================================================
  
                  Total CPU time used (sec):    94059.133
                            User time (sec):    93423.285
                          System time (sec):      635.844
                         Elapsed time (sec):    94325.403
  
                   Maximum memory used (kb):     1541500.
                   Average memory used (kb):          N/A
  
                          Minor page faults:      4351316
                          Major page faults:            2
                 Voluntary context switches:       600779
