       N       E                     dE             d eps       ncg     rms          rms(c)
DAV:   1     0.142534539167E+05    0.14253E+05   -0.61736E+05 24080   0.135E+03
DAV:   2     0.405011093696E+03   -0.13848E+05   -0.13182E+05 27632   0.567E+02
DAV:   3    -0.100815216024E+04   -0.14132E+04   -0.13789E+04 24288   0.163E+02
DAV:   4    -0.106608125233E+04   -0.57929E+02   -0.56439E+02 28272   0.407E+01
DAV:   5    -0.106793144046E+04   -0.18502E+01   -0.18103E+01 26224   0.637E+00
DAV:   6    -0.106801605101E+04   -0.84611E-01   -0.83926E-01 28208   0.148E+00
DAV:   7    -0.106802016621E+04   -0.41152E-02   -0.41042E-02 25984   0.267E-01
DAV:   8    -0.106802042223E+04   -0.25602E-03   -0.25566E-03 23088   0.656E-02    0.346E+02
DAV:   9    -0.657089529598E+03    0.41093E+03   -0.15274E+03 25408   0.618E+01    0.254E+02
DAV:  10    -0.638417245816E+03    0.18672E+02   -0.20889E+02 25744   0.328E+01    0.139E+02
DAV:  11    -0.606064244809E+03    0.32353E+02   -0.37959E+01 24096   0.120E+01    0.461E+01
DAV:  12    -0.605921846373E+03    0.14240E+00   -0.19642E+01 26896   0.752E+00    0.273E+01
DAV:  13    -0.610371684075E+03   -0.44498E+01   -0.81740E+00 24752   0.534E+00    0.267E+01
DAV:  14    -0.609753608798E+03    0.61808E+00   -0.81591E+00 24576   0.395E+00    0.229E+01
DAV:  15    -0.621153474195E+03   -0.11400E+02   -0.27871E+00 23248   0.269E+00    0.219E+01
DAV:  16    -0.633386289773E+03   -0.12233E+02   -0.18150E+00 23568   0.206E+00    0.209E+01
DAV:  17    -0.659999515837E+03   -0.26613E+02   -0.51220E+00 23360   0.291E+00    0.201E+01
DAV:  18    -0.728762612486E+03   -0.68763E+02   -0.32920E+01 23888   0.609E+00    0.178E+01
DAV:  19    -0.785745356194E+03   -0.56983E+02   -0.33846E+01 24656   0.615E+00    0.163E+01
DAV:  20    -0.825380420234E+03   -0.39635E+02   -0.33900E+01 25024   0.595E+00    0.137E+01
DAV:  21    -0.842768543233E+03   -0.17388E+02   -0.16067E+01 24688   0.425E+00    0.113E+01
DAV:  22    -0.850399824302E+03   -0.76313E+01   -0.65452E+00 23904   0.306E+00    0.100E+01
DAV:  23    -0.853754766956E+03   -0.33549E+01   -0.20569E+00 24240   0.231E+00    0.827E+00
DAV:  24    -0.855475335481E+03   -0.17206E+01   -0.87996E-01 24512   0.169E+00    0.724E+00
DAV:  25    -0.856191221442E+03   -0.71589E+00   -0.56293E-01 22912   0.129E+00    0.561E+00
DAV:  26    -0.857326334012E+03   -0.11351E+01   -0.27296E-01 22832   0.864E-01    0.444E+00
DAV:  27    -0.857685324965E+03   -0.35899E+00   -0.14667E-01 23968   0.633E-01    0.360E+00
DAV:  28    -0.858712921203E+03   -0.10276E+01   -0.12148E-01 23296   0.568E-01    0.260E+00
DAV:  29    -0.861068174840E+03   -0.23553E+01   -0.11925E-01 22304   0.528E-01    0.194E+00
DAV:  30    -0.862686064875E+03   -0.16179E+01   -0.79585E-02 23376   0.475E-01    0.159E+00
DAV:  31    -0.863756329673E+03   -0.10703E+01   -0.52851E-02 22960   0.342E-01    0.104E+00
DAV:  32    -0.864711003196E+03   -0.95467E+00   -0.71723E-02 22400   0.265E-01    0.804E-01
DAV:  33    -0.865548733366E+03   -0.83773E+00   -0.70354E-02 22864   0.232E-01    0.607E-01
DAV:  34    -0.866105499096E+03   -0.55677E+00   -0.36461E-02 23184   0.196E-01    0.501E-01
DAV:  35    -0.866372086469E+03   -0.26659E+00   -0.17047E-02 23504   0.146E-01    0.265E-01
DAV:  36    -0.866446422073E+03   -0.74336E-01   -0.34716E-03 24592   0.869E-02    0.195E-01
DAV:  37    -0.866475585453E+03   -0.29163E-01   -0.66540E-04 20368   0.447E-02    0.137E-01
DAV:  38    -0.866496926149E+03   -0.21341E-01   -0.32999E-04 18208   0.282E-02    0.111E-01
DAV:  39    -0.866516258508E+03   -0.19332E-01   -0.17950E-04 16816   0.210E-02    0.916E-02
DAV:  40    -0.866533513094E+03   -0.17255E-01   -0.87048E-05 15328   0.153E-02    0.892E-02
DAV:  41    -0.866578331143E+03   -0.44818E-01   -0.40438E-04 19728   0.248E-02    0.850E-02
DAV:  42    -0.866632133209E+03   -0.53802E-01   -0.57649E-04 20016   0.317E-02    0.785E-02
DAV:  43    -0.866678858479E+03   -0.46725E-01   -0.51651E-04 20128   0.372E-02    0.632E-02
DAV:  44    -0.866709372488E+03   -0.30514E-01   -0.24169E-04 17920   0.282E-02    0.518E-02
DAV:  45    -0.866751244299E+03   -0.41872E-01   -0.29207E-04 17808   0.335E-02    0.351E-02
DAV:  46    -0.866779009115E+03   -0.27765E-01   -0.11899E-04 16224   0.236E-02    0.259E-02
DAV:  47    -0.866785781852E+03   -0.67727E-02   -0.34126E-05 14032   0.138E-02    0.201E-02
DAV:  48    -0.866787601452E+03   -0.18196E-02   -0.12724E-05 13664   0.880E-03    0.144E-02
DAV:  49    -0.866790046120E+03   -0.24447E-02   -0.10042E-05 13648   0.708E-03    0.126E-02
DAV:  50    -0.866792322673E+03   -0.22766E-02   -0.76798E-06 14064   0.640E-03    0.114E-02
DAV:  51    -0.866794583311E+03   -0.22606E-02   -0.12518E-05 14240   0.654E-03    0.116E-02
DAV:  52    -0.866796210993E+03   -0.16277E-02   -0.18269E-05 14352   0.831E-03    0.912E-03
DAV:  53    -0.866796898982E+03   -0.68799E-03   -0.32807E-05 14432   0.880E-03    0.696E-03
DAV:  54    -0.866797003679E+03   -0.10470E-03   -0.10985E-05 14064   0.666E-03    0.545E-03
DAV:  55    -0.866797091149E+03   -0.87470E-04   -0.67519E-06 13904   0.408E-03
   1 F= -.86679709E+03 E0= -.86675968E+03  d E =-.866797E+03  mag=     0.0031
       N       E                     dE             d eps       ncg     rms          rms(c)
DAV:   1    -0.833871720551E+03    0.32925E+02   -0.40139E+03 21856   0.103E+02    0.370E+01
DAV:   2    -0.865170111827E+03   -0.31298E+02   -0.33671E+02 27072   0.261E+01    0.400E+01
DAV:   3    -0.856120296732E+03    0.90498E+01   -0.27480E+01 27552   0.123E+01    0.247E+01
DAV:   4    -0.854799766992E+03    0.13205E+01   -0.12432E+01 26464   0.533E+00    0.184E+01
DAV:   5    -0.854256039224E+03    0.54373E+00   -0.36334E+00 27264   0.329E+00    0.147E+01
DAV:   6    -0.853662119471E+03    0.59392E+00   -0.11569E+00 26384   0.223E+00    0.922E+00
DAV:   7    -0.853761064744E+03   -0.98945E-01   -0.75754E-01 25392   0.170E+00    0.787E+00
DAV:   8    -0.853542992427E+03    0.21807E+00   -0.69385E-01 27184   0.165E+00    0.353E+00
DAV:   9    -0.853495381630E+03    0.47611E-01   -0.21185E-01 27584   0.994E-01    0.136E+00
DAV:  10    -0.853492798512E+03    0.25831E-02   -0.29123E-02 23216   0.349E-01    0.938E-01
DAV:  11    -0.853491287383E+03    0.15111E-02   -0.93292E-03 27264   0.224E-01    0.587E-01
DAV:  12    -0.853491678717E+03   -0.39133E-03   -0.38378E-03 24880   0.148E-01    0.312E-01
DAV:  13    -0.853492098778E+03   -0.42006E-03   -0.10997E-03 23152   0.767E-02    0.144E-01
DAV:  14    -0.853492585819E+03   -0.48704E-03   -0.28864E-04 18640   0.420E-02    0.120E-01
DAV:  15    -0.853492751341E+03   -0.16552E-03   -0.10908E-04 14608   0.223E-02    0.643E-02
DAV:  16    -0.853493042853E+03   -0.29151E-03   -0.70283E-05 14720   0.164E-02    0.346E-02
DAV:  17    -0.853493326845E+03   -0.28399E-03   -0.77556E-05 15760   0.119E-02    0.153E-02
DAV:  18    -0.853493513072E+03   -0.18623E-03   -0.29159E-05 14464   0.845E-03    0.117E-02
DAV:  19    -0.853493745223E+03   -0.23215E-03   -0.61532E-05 15504   0.846E-03    0.120E-02
DAV:  20    -0.853493950950E+03   -0.20573E-03   -0.78658E-05 16400   0.933E-03    0.106E-02
DAV:  21    -0.853494048679E+03   -0.97728E-04   -0.30262E-05 14688   0.747E-03
   2 F= -.85349405E+03 E0= -.85345697E+03  d E =0.133030E+02  mag=     0.0013
       N       E                     dE             d eps       ncg     rms          rms(c)
DAV:   1    -0.862012469022E+03   -0.85185E+01   -0.23145E+03 22368   0.740E+01    0.305E+01
DAV:   2    -0.869308709637E+03   -0.72962E+01   -0.92258E+01 25888   0.158E+01    0.132E+01
DAV:   3    -0.870113568692E+03   -0.80486E+00   -0.96430E+00 25888   0.548E+00    0.158E+01
DAV:   4    -0.868863099581E+03    0.12505E+01   -0.35128E+00 26496   0.362E+00    0.800E+00
DAV:   5    -0.868918245699E+03   -0.55146E-01   -0.15483E+00 25152   0.207E+00    0.795E+00
DAV:   6    -0.868713810329E+03    0.20444E+00   -0.96414E-01 27696   0.179E+00    0.431E+00
DAV:   7    -0.868666907171E+03    0.46903E-01   -0.23466E-01 25824   0.105E+00    0.250E+00
DAV:   8    -0.868647391664E+03    0.19516E-01   -0.74364E-02 25232   0.538E-01    0.974E-01
DAV:   9    -0.868647658696E+03   -0.26703E-03   -0.11964E-02 26128   0.273E-01    0.672E-01
DAV:  10    -0.868646679215E+03    0.97948E-03   -0.49621E-03 26144   0.163E-01    0.381E-01
DAV:  11    -0.868646428379E+03    0.25084E-03   -0.17798E-03 25072   0.985E-02    0.240E-01
DAV:  12    -0.868646397624E+03    0.30755E-04   -0.53493E-04 20448   0.467E-02
   3 F= -.86864640E+03 E0= -.86860882E+03  d E =-.184931E+01  mag=     0.0010
       N       E                     dE             d eps       ncg     rms          rms(c)
DAV:   1    -0.868682834360E+03   -0.36406E-01   -0.27990E+00 20848   0.266E+00    0.696E-01
DAV:   2    -0.868689895833E+03   -0.70615E-02   -0.97317E-02 26752   0.537E-01    0.867E-01
DAV:   3    -0.868688284898E+03    0.16109E-02   -0.15373E-02 24752   0.214E-01    0.579E-01
DAV:   4    -0.868687475436E+03    0.80946E-03   -0.80719E-03 25552   0.147E-01    0.423E-01
DAV:   5    -0.868687344183E+03    0.13125E-03   -0.30805E-03 22928   0.977E-02    0.375E-01
DAV:   6    -0.868687044031E+03    0.30015E-03   -0.14153E-03 21792   0.760E-02    0.165E-01
DAV:   7    -0.868687160676E+03   -0.11664E-03   -0.56932E-04 19696   0.488E-02    0.112E-01
DAV:   8    -0.868687140839E+03    0.19836E-04   -0.12349E-04 13616   0.285E-02
   4 F= -.86868714E+03 E0= -.86864960E+03  d E =-.189005E+01  mag=     0.0009
       N       E                     dE             d eps       ncg     rms          rms(c)
DAV:   1    -0.868689289766E+03   -0.21291E-02   -0.27502E-01 20656   0.835E-01    0.222E-01
DAV:   2    -0.868690014142E+03   -0.72438E-03   -0.96216E-03 26544   0.171E-01    0.231E-01
DAV:   3    -0.868689950134E+03    0.64008E-04   -0.11976E-03 22832   0.639E-02    0.183E-01
DAV:   4    -0.868689896109E+03    0.54025E-04   -0.72183E-04 14064   0.449E-02    0.129E-01
DAV:   5    -0.868689925092E+03   -0.28983E-04   -0.31949E-04 12640   0.329E-02    0.113E-01
DAV:   6    -0.868689954662E+03   -0.29570E-04   -0.16557E-04 13312   0.276E-02
   5 F= -.86868995E+03 E0= -.86865241E+03  d E =-.189286E+01  mag=     0.0008
       N       E                     dE             d eps       ncg     rms          rms(c)
DAV:   1    -0.868046226119E+03    0.64370E+00   -0.29900E+02 20256   0.306E+01    0.735E+00
DAV:   2    -0.868953754024E+03   -0.90753E+00   -0.10817E+01 22816   0.463E+00    0.488E+00
DAV:   3    -0.868993120217E+03   -0.39366E-01   -0.49345E-01 27024   0.141E+00    0.492E+00
DAV:   4    -0.868947841577E+03    0.45279E-01   -0.19742E-01 27088   0.916E-01    0.329E+00
DAV:   5    -0.869011642907E+03   -0.63801E-01   -0.33534E-01 25552   0.104E+00    0.411E+00
DAV:   6    -0.868934433318E+03    0.77210E-01   -0.25856E-01 26624   0.856E-01    0.151E+00
DAV:   7    -0.868929973955E+03    0.44594E-02   -0.30514E-02 25456   0.355E-01    0.541E-01
DAV:   8    -0.868929338337E+03    0.63562E-03   -0.62977E-03 25856   0.161E-01    0.316E-01
DAV:   9    -0.868928951888E+03    0.38645E-03   -0.14943E-03 23072   0.837E-02    0.186E-01
DAV:  10    -0.868928942901E+03    0.89869E-05   -0.40390E-04 18848   0.449E-02
   6 F= -.86892894E+03 E0= -.86889190E+03  d E =-.238988E+00  mag=     0.0006
       N       E                     dE             d eps       ncg     rms          rms(c)
DAV:   1    -0.868988752605E+03   -0.59801E-01   -0.46201E+01 20352   0.120E+01    0.317E+00
DAV:   2    -0.869128992565E+03   -0.14024E+00   -0.17542E+00 25776   0.208E+00    0.187E+00
DAV:   3    -0.869131411551E+03   -0.24190E-02   -0.72718E-02 25840   0.610E-01    0.176E+00
DAV:   4    -0.869128214127E+03    0.31974E-02   -0.34290E-02 27808   0.433E-01    0.146E+00
DAV:   5    -0.869131055868E+03   -0.28417E-02   -0.50084E-02 25024   0.410E-01    0.142E+00
DAV:   6    -0.869123819334E+03    0.72365E-02   -0.44506E-02 26192   0.325E-01    0.657E-01
DAV:   7    -0.869122876609E+03    0.94273E-03   -0.66608E-03 24048   0.139E-01    0.284E-01
DAV:   8    -0.869122538563E+03    0.33805E-03   -0.10581E-03 25152   0.788E-02    0.131E-01
DAV:   9    -0.869122542264E+03   -0.37010E-05   -0.21046E-04 15152   0.318E-02
   7 F= -.86912254E+03 E0= -.86908519E+03  d E =-.432588E+00  mag=     0.0005
       N       E                     dE             d eps       ncg     rms          rms(c)
DAV:   1    -0.869392542337E+03   -0.27000E+00   -0.97387E+01 20272   0.177E+01    0.388E+00
DAV:   2    -0.869615918052E+03   -0.22338E+00   -0.26553E+00 23472   0.262E+00    0.251E+00
DAV:   3    -0.869628266357E+03   -0.12348E-01   -0.14413E-01 26976   0.730E-01    0.201E+00
DAV:   4    -0.869625401561E+03    0.28648E-02   -0.10192E-01 27808   0.658E-01    0.208E+00
DAV:   5    -0.869614124503E+03    0.11277E-01   -0.45326E-02 24912   0.413E-01    0.919E-01
DAV:   6    -0.869615064697E+03   -0.94019E-03   -0.37554E-02 26000   0.317E-01    0.989E-01
DAV:   7    -0.869611256096E+03    0.38086E-02   -0.16003E-02 25456   0.208E-01    0.431E-01
DAV:   8    -0.869610713117E+03    0.54298E-03   -0.18441E-03 23712   0.874E-02    0.170E-01
DAV:   9    -0.869610692048E+03    0.21069E-04   -0.32989E-04 16000   0.386E-02
   8 F= -.86961069E+03 E0= -.86957383E+03  d E =-.488150E+00  mag=     0.0005
       N       E                     dE             d eps       ncg     rms          rms(c)
DAV:   1    -0.869604454561E+03    0.62586E-02   -0.38806E+01 20368   0.112E+01    0.252E+00
DAV:   2    -0.869690967890E+03   -0.86513E-01   -0.10336E+00 23216   0.161E+00    0.147E+00
DAV:   3    -0.869694107438E+03   -0.31395E-02   -0.45280E-02 26928   0.380E-01    0.103E+00
DAV:   4    -0.869698424861E+03   -0.43174E-02   -0.29968E-02 27424   0.357E-01    0.149E+00
DAV:   5    -0.869691067655E+03    0.73572E-02   -0.16867E-02 24736   0.251E-01    0.495E-01
DAV:   6    -0.869691421028E+03   -0.35337E-03   -0.10213E-02 25200   0.176E-01    0.510E-01
DAV:   7    -0.869690279249E+03    0.11418E-02   -0.42761E-03 23856   0.113E-01    0.224E-01
DAV:   8    -0.869690178546E+03    0.10070E-03   -0.69778E-04 14880   0.500E-02    0.130E-01
DAV:   9    -0.869690134929E+03    0.43618E-04   -0.15352E-04 13312   0.289E-02
   9 F= -.86969013E+03 E0= -.86965369E+03  d E =-.567593E+00  mag=     0.0004
       N       E                     dE             d eps       ncg     rms          rms(c)
DAV:   1    -0.869611281490E+03    0.78897E-01   -0.64985E+01 20544   0.154E+01    0.366E+00
DAV:   2    -0.869918732989E+03   -0.30745E+00   -0.33069E+00 23184   0.288E+00    0.343E+00
DAV:   3    -0.869916937363E+03    0.17956E-02   -0.21305E-01 26576   0.907E-01    0.273E+00
DAV:   4    -0.869897471521E+03    0.19466E-01   -0.92656E-02 24496   0.567E-01    0.175E+00
DAV:   5    -0.869905289007E+03   -0.78175E-02   -0.47952E-02 25760   0.429E-01    0.166E+00
DAV:   6    -0.869894597389E+03    0.10692E-01   -0.32665E-02 24864   0.344E-01    0.451E-01
DAV:   7    -0.869896452612E+03   -0.18552E-02   -0.10385E-02 25856   0.191E-01    0.627E-01
DAV:   8    -0.869894813295E+03    0.16393E-02   -0.39055E-03 23520   0.116E-01    0.172E-01
DAV:   9    -0.869894901166E+03   -0.87872E-04   -0.30802E-04 15520   0.399E-02
  10 F= -.86989490E+03 E0= -.86985868E+03  d E =-.204766E+00  mag=     0.0003
       N       E                     dE             d eps       ncg     rms          rms(c)
DAV:   1    -0.869894885646E+03   -0.72351E-04   -0.22271E-03 21552   0.942E-02    0.976E-02
DAV:   2    -0.869895029637E+03   -0.14399E-03   -0.45491E-04 17408   0.468E-02    0.147E-01
DAV:   3    -0.869894939713E+03    0.89924E-04   -0.33671E-04 13008   0.432E-02    0.782E-02
DAV:   4    -0.869894969918E+03   -0.30204E-04   -0.63271E-05 13072   0.170E-02    0.552E-02
DAV:   5    -0.869895006934E+03   -0.37017E-04   -0.47558E-05 13328   0.147E-02    0.355E-02
DAV:   6    -0.869895051302E+03   -0.44368E-04   -0.27414E-05 13424   0.957E-03
  11 F= -.86989505E+03 E0= -.86985884E+03  d E =-.204916E+00  mag=     0.0003
       N       E                     dE             d eps       ncg     rms          rms(c)
DAV:   1    -0.869881301552E+03    0.13705E-01   -0.37914E+01 20160   0.116E+01    0.274E+00
DAV:   2    -0.870035253157E+03   -0.15395E+00   -0.16936E+00 22400   0.203E+00    0.268E+00
DAV:   3    -0.870041143924E+03   -0.58908E-02   -0.17798E-01 26064   0.781E-01    0.223E+00
DAV:   4    -0.870033042909E+03    0.81010E-02   -0.15551E-01 27424   0.650E-01    0.207E+00
DAV:   5    -0.870027861826E+03    0.51811E-02   -0.39136E-02 26080   0.399E-01    0.153E+00
DAV:   6    -0.870020643212E+03    0.72186E-02   -0.20525E-02 26320   0.298E-01    0.566E-01
DAV:   7    -0.870021276141E+03   -0.63293E-03   -0.70138E-03 25168   0.178E-01    0.400E-01
DAV:   8    -0.870020710461E+03    0.56568E-03   -0.16235E-03 25648   0.912E-02    0.174E-01
DAV:   9    -0.870020764736E+03   -0.54275E-04   -0.19714E-04 14128   0.323E-02
  12 F= -.87002076E+03 E0= -.86998519E+03  d E =-.125713E+00  mag=     0.0002
       N       E                     dE             d eps       ncg     rms          rms(c)
DAV:   1    -0.870019951374E+03    0.75909E-03   -0.13058E+00 20480   0.215E+00    0.535E-01
DAV:   2    -0.870025089013E+03   -0.51376E-02   -0.58241E-02 23120   0.376E-01    0.380E-01
DAV:   3    -0.870025187753E+03   -0.98740E-04   -0.22203E-03 26448   0.102E-01    0.254E-01
DAV:   4    -0.870025360973E+03   -0.17322E-03   -0.14894E-03 21376   0.748E-02    0.331E-01
DAV:   5    -0.870025351445E+03    0.95285E-05   -0.14926E-03 18640   0.672E-02    0.216E-01
DAV:   6    -0.870025256450E+03    0.94995E-04   -0.10744E-03 14544   0.583E-02    0.125E-01
DAV:   7    -0.870025267555E+03   -0.11105E-04   -0.23660E-04 12928   0.336E-02
  13 F= -.87002527E+03 E0= -.86998982E+03  d E =-.130216E+00  mag=     0.0002
       N       E                     dE             d eps       ncg     rms          rms(c)
DAV:   1    -0.870023303410E+03    0.19530E-02   -0.40055E+01 20192   0.119E+01    0.268E+00
DAV:   2    -0.870151843876E+03   -0.12854E+00   -0.14191E+00 22336   0.184E+00    0.201E+00
DAV:   3    -0.870165222401E+03   -0.13379E-01   -0.11400E-01 27152   0.673E-01    0.215E+00
DAV:   4    -0.870158297552E+03    0.69248E-02   -0.13002E-01 28064   0.610E-01    0.188E+00
DAV:   5    -0.870152931067E+03    0.53665E-02   -0.43443E-02 26128   0.389E-01    0.128E+00
DAV:   6    -0.870147969574E+03    0.49615E-02   -0.15460E-02 24768   0.261E-01    0.445E-01
DAV:   7    -0.870148166306E+03   -0.19673E-03   -0.49099E-03 24976   0.143E-01    0.338E-01
DAV:   8    -0.870147673284E+03    0.49302E-03   -0.12946E-03 23488   0.844E-02    0.133E-01
DAV:   9    -0.870147676640E+03   -0.33559E-05   -0.16549E-04 12864   0.330E-02
  14 F= -.87014768E+03 E0= -.87011313E+03  d E =-.122409E+00  mag=     0.0002
       N       E                     dE             d eps       ncg     rms          rms(c)
DAV:   1    -0.870114609898E+03    0.33063E-01   -0.20438E+01 20160   0.850E+00    0.192E+00
DAV:   2    -0.870179225036E+03   -0.64615E-01   -0.71900E-01 22272   0.130E+00    0.133E+00
DAV:   3    -0.870185064885E+03   -0.58398E-02   -0.48565E-02 27312   0.445E-01    0.137E+00
DAV:   4    -0.870183801791E+03    0.12631E-02   -0.56978E-02 28032   0.419E-01    0.135E+00
DAV:   5    -0.870180366050E+03    0.34357E-02   -0.21630E-02 25680   0.283E-01    0.853E-01
DAV:   6    -0.870178258860E+03    0.21072E-02   -0.67105E-03 24864   0.181E-01    0.301E-01
DAV:   7    -0.870178310158E+03   -0.51298E-04   -0.22182E-03 24736   0.949E-02    0.224E-01
DAV:   8    -0.870178102192E+03    0.20797E-03   -0.52754E-04 16736   0.554E-02    0.977E-02
DAV:   9    -0.870178103278E+03   -0.10856E-05   -0.85907E-05 13008   0.259E-02
  15 F= -.87017810E+03 E0= -.87014418E+03  d E =-.152836E+00  mag=     0.0001
       N       E                     dE             d eps       ncg     rms          rms(c)
DAV:   1    -0.870111652626E+03    0.66450E-01   -0.47666E+01 20192   0.129E+01    0.253E+00
DAV:   2    -0.870265792678E+03   -0.15414E+00   -0.18082E+00 25248   0.220E+00    0.180E+00
DAV:   3    -0.870262034635E+03    0.37580E-02   -0.91337E-02 26320   0.690E-01    0.150E+00
DAV:   4    -0.870256556986E+03    0.54776E-02   -0.42563E-02 26528   0.377E-01    0.108E+00
DAV:   5    -0.870261819045E+03   -0.52621E-02   -0.26415E-02 26608   0.317E-01    0.133E+00
DAV:   6    -0.870255462150E+03    0.63569E-02   -0.18559E-02 25840   0.270E-01    0.364E-01
DAV:   7    -0.870256287219E+03   -0.82507E-03   -0.44361E-03 25056   0.124E-01    0.318E-01
DAV:   8    -0.870255855666E+03    0.43155E-03   -0.14485E-03 22176   0.701E-02    0.111E-01
DAV:   9    -0.870255879799E+03   -0.24133E-04   -0.15364E-04 12976   0.289E-02
  16 F= -.87025588E+03 E0= -.87022251E+03  d E =-.777765E-01  mag=     0.0001
       N       E                     dE             d eps       ncg     rms          rms(c)
DAV:   1    -0.870255771889E+03    0.83777E-04   -0.14406E-01 20576   0.711E-01    0.149E-01
DAV:   2    -0.870256297496E+03   -0.52561E-03   -0.55127E-03 23184   0.119E-01    0.138E-01
DAV:   3    -0.870256287205E+03    0.10291E-04   -0.48288E-04 18512   0.452E-02    0.111E-01
DAV:   4    -0.870256277759E+03    0.94459E-05   -0.19929E-04 12688   0.279E-02    0.650E-02
DAV:   5    -0.870256296612E+03   -0.18853E-04   -0.80993E-05 13168   0.173E-02    0.575E-02
DAV:   6    -0.870256333828E+03   -0.37216E-04   -0.63980E-05 13024   0.175E-02
  17 F= -.87025633E+03 E0= -.87022300E+03  d E =-.782306E-01  mag=     0.0001
       N       E                     dE             d eps       ncg     rms          rms(c)
DAV:   1    -0.870232262036E+03    0.24035E-01   -0.23439E+01 20192   0.894E+00    0.170E+00
DAV:   2    -0.870312532871E+03   -0.80271E-01   -0.85569E-01 22016   0.139E+00    0.169E+00
DAV:   3    -0.870310684072E+03    0.18488E-02   -0.60909E-02 27040   0.493E-01    0.125E+00
DAV:   4    -0.870306706236E+03    0.39778E-02   -0.20717E-02 24976   0.288E-01    0.864E-01
DAV:   5    -0.870306128454E+03    0.57778E-03   -0.81438E-03 24704   0.181E-01    0.425E-01
DAV:   6    -0.870306052540E+03    0.75913E-04   -0.61166E-03 26544   0.151E-01    0.365E-01
DAV:   7    -0.870305595658E+03    0.45688E-03   -0.24626E-03 23520   0.926E-02    0.206E-01
DAV:   8    -0.870305496889E+03    0.98769E-04   -0.45481E-04 14704   0.432E-02
  18 F= -.87030550E+03 E0= -.87027231E+03  d E =-.491631E-01  mag=     0.0001
       N       E                     dE             d eps       ncg     rms          rms(c)
DAV:   1    -0.870294673906E+03    0.10922E-01   -0.54472E+00 20256   0.431E+00    0.831E-01
DAV:   2    -0.870312897197E+03   -0.18223E-01   -0.19831E-01 22112   0.670E-01    0.736E-01
DAV:   3    -0.870313006116E+03   -0.10892E-03   -0.11915E-02 27168   0.222E-01    0.583E-01
DAV:   4    -0.870312218176E+03    0.78794E-03   -0.51617E-03 25088   0.141E-01    0.444E-01
DAV:   5    -0.870312018775E+03    0.19940E-03   -0.18026E-03 24064   0.892E-02    0.206E-01
DAV:   6    -0.870311955313E+03    0.63462E-04   -0.10178E-03 22480   0.678E-02    0.138E-01
DAV:   7    -0.870311914424E+03    0.40889E-04   -0.23568E-04 13264   0.359E-02
  19 F= -.87031191E+03 E0= -.87027883E+03  d E =-.555806E-01  mag=     0.0001
       N       E                     dE             d eps       ncg     rms          rms(c)
DAV:   1    -0.870317515588E+03   -0.55603E-02   -0.15153E+01 20240   0.710E+00    0.123E+00
DAV:   2    -0.870359277746E+03   -0.41762E-01   -0.45326E-01 21632   0.101E+00    0.765E-01
DAV:   3    -0.870360097845E+03   -0.82010E-03   -0.15923E-02 27744   0.237E-01    0.559E-01
DAV:   4    -0.870361032081E+03   -0.93424E-03   -0.86257E-03 27776   0.177E-01    0.670E-01
DAV:   5    -0.870360930147E+03    0.10193E-03   -0.89720E-03 25776   0.175E-01    0.591E-01
DAV:   6    -0.870359708312E+03    0.12218E-02   -0.36637E-03 25856   0.130E-01    0.160E-01
DAV:   7    -0.870359699461E+03    0.88511E-05   -0.47308E-04 19536   0.508E-02
  20 F= -.87035970E+03 E0= -.87032672E+03  d E =-.477850E-01  mag=     0.0001
       N       E                     dE             d eps       ncg     rms          rms(c)
DAV:   1    -0.870267081566E+03    0.92627E-01   -0.44735E+01 20160   0.122E+01    0.212E+00
DAV:   2    -0.870392374293E+03   -0.12529E+00   -0.13628E+00 22016   0.176E+00    0.133E+00
DAV:   3    -0.870394536364E+03   -0.21621E-02   -0.43824E-02 27360   0.390E-01    0.972E-01
DAV:   4    -0.870398039564E+03   -0.35032E-02   -0.19481E-02 28800   0.312E-01    0.131E+00
DAV:   5    -0.870396168696E+03    0.18709E-02   -0.25951E-02 26464   0.304E-01    0.924E-01
DAV:   6    -0.870393136320E+03    0.30324E-02   -0.13531E-02 25792   0.214E-01    0.307E-01
DAV:   7    -0.870393145207E+03   -0.88864E-05   -0.26015E-03 25408   0.958E-02    0.220E-01
DAV:   8    -0.870392944751E+03    0.20046E-03   -0.51037E-04 16560   0.466E-02    0.892E-02
DAV:   9    -0.870392963262E+03   -0.18511E-04   -0.72325E-05 13072   0.231E-02
  21 F= -.87039296E+03 E0= -.87036021E+03  d E =-.810488E-01  mag=     0.0001
       N       E                     dE             d eps       ncg     rms          rms(c)
DAV:   1    -0.870394493652E+03   -0.15489E-02   -0.13305E+01 20192   0.688E+00    0.109E+00
DAV:   2    -0.870432841971E+03   -0.38348E-01   -0.42180E-01 22608   0.101E+00    0.794E-01
DAV:   3    -0.870433108968E+03   -0.26700E-03   -0.14870E-02 25744   0.246E-01    0.609E-01
DAV:   4    -0.870432613833E+03    0.49513E-03   -0.57820E-03 24928   0.149E-01    0.516E-01
DAV:   5    -0.870432761799E+03   -0.14797E-03   -0.48544E-03 24528   0.128E-01    0.423E-01
DAV:   6    -0.870432283637E+03    0.47816E-03   -0.29821E-03 24224   0.103E-01    0.180E-01
DAV:   7    -0.870432332958E+03   -0.49321E-04   -0.80879E-04 16208   0.580E-02
  22 F= -.87043233E+03 E0= -.87039972E+03  d E =-.393697E-01  mag=     0.0000
       N       E                     dE             d eps       ncg     rms          rms(c)
DAV:   1    -0.870378517190E+03    0.53766E-01   -0.30691E+01 20160   0.105E+01    0.167E+00
DAV:   2    -0.870468085657E+03   -0.89568E-01   -0.98785E-01 23408   0.156E+00    0.119E+00
DAV:   3    -0.870467983731E+03    0.10193E-03   -0.29744E-02 25696   0.373E-01    0.878E-01
DAV:   4    -0.870467401577E+03    0.58215E-03   -0.12089E-02 24848   0.223E-01    0.800E-01
DAV:   5    -0.870467090885E+03    0.31069E-03   -0.90938E-03 24704   0.185E-01    0.565E-01
DAV:   6    -0.870466291047E+03    0.79984E-03   -0.48094E-03 24768   0.140E-01    0.206E-01
DAV:   7    -0.870466348700E+03   -0.57653E-04   -0.11286E-03 21632   0.683E-02    0.179E-01
DAV:   8    -0.870466236151E+03    0.11255E-03   -0.40399E-04 12864   0.409E-02    0.863E-02
DAV:   9    -0.870466249427E+03   -0.13276E-04   -0.93152E-05 12944   0.252E-02
  23 F= -.87046625E+03 E0= -.87043395E+03  d E =-.732862E-01  mag=     0.0000
       N       E                     dE             d eps       ncg     rms          rms(c)
DAV:   1    -0.870450045384E+03    0.16191E-01   -0.74904E+00 20256   0.516E+00    0.820E-01
DAV:   2    -0.870471504130E+03   -0.21459E-01   -0.23788E-01 22512   0.761E-01    0.600E-01
DAV:   3    -0.870471712854E+03   -0.20872E-03   -0.87405E-03 25872   0.185E-01    0.445E-01
DAV:   4    -0.870471492299E+03    0.22056E-03   -0.34170E-03 25024   0.115E-01    0.405E-01
DAV:   5    -0.870471685985E+03   -0.19369E-03   -0.33379E-03 23712   0.104E-01    0.364E-01
DAV:   6    -0.870471276318E+03    0.40967E-03   -0.21797E-03 21776   0.873E-02    0.155E-01
DAV:   7    -0.870471283385E+03   -0.70669E-05   -0.43367E-04 13312   0.456E-02
  24 F= -.87047128E+03 E0= -.87043910E+03  d E =-.783201E-01  mag=     0.0000
       N       E                     dE             d eps       ncg     rms          rms(c)
DAV:   1    -0.870476879521E+03   -0.56032E-02   -0.68041E+00 20256   0.487E+00    0.780E-01
DAV:   2    -0.870495332595E+03   -0.18453E-01   -0.20598E-01 22976   0.713E-01    0.559E-01
DAV:   3    -0.870496251431E+03   -0.91884E-03   -0.12509E-02 27072   0.191E-01    0.623E-01
DAV:   4    -0.870495003055E+03    0.12484E-02   -0.47833E-03 23408   0.124E-01    0.307E-01
DAV:   5    -0.870495720390E+03   -0.71734E-03   -0.23597E-03 25008   0.102E-01    0.435E-01
DAV:   6    -0.870495063644E+03    0.65675E-03   -0.15949E-03 22784   0.869E-02    0.130E-01
DAV:   7    -0.870495090650E+03   -0.27007E-04   -0.32899E-04 16368   0.397E-02
  25 F= -.87049509E+03 E0= -.87046304E+03  d E =-.238073E-01  mag=     0.0000
       N       E                     dE             d eps       ncg     rms          rms(c)
DAV:   1    -0.870491890048E+03    0.31736E-02   -0.27347E+00 20288   0.309E+00    0.495E-01
DAV:   2    -0.870499257742E+03   -0.73677E-02   -0.82970E-02 23056   0.454E-01    0.335E-01
DAV:   3    -0.870499534402E+03   -0.27666E-03   -0.40923E-03 26544   0.110E-01    0.331E-01
DAV:   4    -0.870499242171E+03    0.29223E-03   -0.16228E-03 18960   0.720E-02    0.207E-01
DAV:   5    -0.870499506024E+03   -0.26385E-03   -0.10425E-03 18096   0.672E-02    0.269E-01
DAV:   6    -0.870499271876E+03    0.23415E-03   -0.61770E-04 16512   0.559E-02    0.845E-02
DAV:   7    -0.870499280428E+03   -0.85518E-05   -0.13174E-04 13200   0.284E-02
  26 F= -.87049928E+03 E0= -.87046730E+03  d E =-.279970E-01  mag=     0.0000
       N       E                     dE             d eps       ncg     rms          rms(c)
DAV:   1    -0.870503037604E+03   -0.37657E-02   -0.45036E+00 20176   0.406E+00    0.775E-01
DAV:   2    -0.870516849302E+03   -0.13812E-01   -0.15063E-01 21568   0.591E-01    0.488E-01
DAV:   3    -0.870517060445E+03   -0.21114E-03   -0.52000E-03 26928   0.144E-01    0.340E-01
DAV:   4    -0.870517514652E+03   -0.45421E-03   -0.39604E-03 24416   0.115E-01    0.441E-01
DAV:   5    -0.870517226969E+03    0.28768E-03   -0.33555E-03 22608   0.106E-01    0.280E-01
DAV:   6    -0.870516987816E+03    0.23915E-03   -0.12038E-03 18240   0.673E-02    0.122E-01
DAV:   7    -0.870516987935E+03   -0.11956E-06   -0.19805E-04 12688   0.349E-02
  27 F= -.87051699E+03 E0= -.87048499E+03  d E =-.177075E-01  mag=     0.0000
       N       E                     dE             d eps       ncg     rms          rms(c)
DAV:   1    -0.870450267596E+03    0.66720E-01   -0.27427E+01 20160   0.100E+01    0.194E+00
DAV:   2    -0.870534785605E+03   -0.84518E-01   -0.92331E-01 21696   0.147E+00    0.118E+00
DAV:   3    -0.870535751584E+03   -0.96598E-03   -0.30736E-02 27152   0.340E-01    0.776E-01
DAV:   4    -0.870539252253E+03   -0.35007E-02   -0.23279E-02 27584   0.273E-01    0.110E+00
DAV:   5    -0.870535668609E+03    0.35836E-02   -0.17272E-02 25472   0.247E-01    0.442E-01
DAV:   6    -0.870535855564E+03   -0.18695E-03   -0.57015E-03 25184   0.138E-01    0.365E-01
DAV:   7    -0.870535410040E+03    0.44552E-03   -0.14516E-03 21152   0.814E-02    0.155E-01
DAV:   8    -0.870535354028E+03    0.56011E-04   -0.32660E-04 12544   0.363E-02
  28 F= -.87053535E+03 E0= -.87050328E+03  d E =-.360736E-01  mag=     0.0000
       N       E                     dE             d eps       ncg     rms          rms(c)
DAV:   1    -0.870539834616E+03   -0.44246E-02   -0.39496E+00 20192   0.378E+00    0.609E-01
DAV:   2    -0.870550070279E+03   -0.10236E-01   -0.11601E-01 23248   0.532E-01    0.380E-01
DAV:   3    -0.870550280099E+03   -0.20982E-03   -0.40370E-03 25296   0.129E-01    0.340E-01
DAV:   4    -0.870550202789E+03    0.77310E-04   -0.30300E-03 22144   0.981E-02    0.321E-01
DAV:   5    -0.870550352958E+03   -0.15017E-03   -0.19027E-03 19600   0.843E-02    0.255E-01
DAV:   6    -0.870550157300E+03    0.19566E-03   -0.70882E-04 19424   0.578E-02    0.965E-02
DAV:   7    -0.870550162884E+03   -0.55842E-05   -0.16579E-04 12912   0.274E-02
  29 F= -.87055016E+03 E0= -.87051809E+03  d E =-.148089E-01  mag=     0.0000
       N       E                     dE             d eps       ncg     rms          rms(c)
DAV:   1    -0.870477429458E+03    0.72728E-01   -0.35416E+01 20160   0.113E+01    0.181E+00
DAV:   2    -0.870572977157E+03   -0.95548E-01   -0.10646E+00 24240   0.163E+00    0.127E+00
DAV:   3    -0.870573702713E+03   -0.72556E-03   -0.45243E-02 25536   0.437E-01    0.116E+00
DAV:   4    -0.870570166812E+03    0.35359E-02   -0.30615E-02 25312   0.292E-01    0.857E-01
DAV:   5    -0.870573578499E+03   -0.34117E-02   -0.20533E-02 26048   0.257E-01    0.101E+00
DAV:   6    -0.870569578014E+03    0.40005E-02   -0.91716E-03 26576   0.203E-01    0.291E-01
DAV:   7    -0.870570045512E+03   -0.46750E-03   -0.20388E-03 25248   0.933E-02    0.204E-01
DAV:   8    -0.870569881929E+03    0.16358E-03   -0.59413E-04 15824   0.485E-02    0.735E-02
DAV:   9    -0.870569907440E+03   -0.25511E-04   -0.96180E-05 12832   0.253E-02
  30 F= -.87056991E+03 E0= -.87053780E+03  d E =-.345534E-01  mag=     0.0000
       N       E                     dE             d eps       ncg     rms          rms(c)
DAV:   1    -0.870568780256E+03    0.11017E-02   -0.64496E+00 20176   0.491E+00    0.796E-01
DAV:   2    -0.870586657822E+03   -0.17878E-01   -0.19828E-01 22256   0.701E-01    0.560E-01
DAV:   3    -0.870587005211E+03   -0.34739E-03   -0.78447E-03 27232   0.168E-01    0.434E-01
DAV:   4    -0.870587131919E+03   -0.12671E-03   -0.43811E-03 24800   0.123E-01    0.463E-01
DAV:   5    -0.870587229459E+03   -0.97539E-04   -0.36764E-03 24208   0.111E-01    0.397E-01
DAV:   6    -0.870586792490E+03    0.43697E-03   -0.21373E-03 24048   0.939E-02    0.164E-01
DAV:   7    -0.870586740896E+03    0.51594E-04   -0.36157E-04 14688   0.467E-02
  31 F= -.87058674E+03 E0= -.87055470E+03  d E =-.168335E-01  mag=     0.0000
       N       E                     dE             d eps       ncg     rms          rms(c)
DAV:   1    -0.870557229928E+03    0.29563E-01   -0.13150E+01 20208   0.702E+00    0.114E+00
DAV:   2    -0.870593584143E+03   -0.36354E-01   -0.40390E-01 22224   0.100E+00    0.747E-01
DAV:   3    -0.870594067492E+03   -0.48335E-03   -0.13476E-02 27408   0.220E-01    0.516E-01
DAV:   4    -0.870595292511E+03   -0.12250E-02   -0.85627E-03 25568   0.163E-01    0.735E-01
DAV:   5    -0.870594445474E+03    0.84704E-03   -0.74214E-03 25664   0.159E-01    0.459E-01
DAV:   6    -0.870594045318E+03    0.40016E-03   -0.35305E-03 25616   0.118E-01    0.248E-01
DAV:   7    -0.870593850367E+03    0.19495E-03   -0.69029E-04 19360   0.629E-02    0.125E-01
DAV:   8    -0.870593824428E+03    0.25939E-04   -0.12362E-04 13008   0.257E-02
  32 F= -.87059382E+03 E0= -.87056176E+03  d E =-.239170E-01  mag=     0.0000
       N       E                     dE             d eps       ncg     rms          rms(c)
DAV:   1    -0.870582667276E+03    0.11183E-01   -0.88466E+00 20224   0.580E+00    0.102E+00
DAV:   2    -0.870609257309E+03   -0.26590E-01   -0.29362E-01 21152   0.854E-01    0.605E-01
DAV:   3    -0.870609912454E+03   -0.65515E-03   -0.94832E-03 26656   0.206E-01    0.527E-01
DAV:   4    -0.870610148795E+03   -0.23634E-03   -0.46151E-03 25920   0.142E-01    0.521E-01
DAV:   5    -0.870610105274E+03    0.43521E-04   -0.45055E-03 25392   0.132E-01    0.374E-01
DAV:   6    -0.870609739647E+03    0.36563E-03   -0.27931E-03 24416   0.960E-02    0.191E-01
DAV:   7    -0.870609640451E+03    0.99196E-04   -0.46102E-04 14816   0.438E-02
  33 F= -.87060964E+03 E0= -.87057758E+03  d E =-.158160E-01  mag=     0.0000
       N       E                     dE             d eps       ncg     rms          rms(c)
DAV:   1    -0.870553194154E+03    0.56545E-01   -0.21133E+01 20160   0.896E+00    0.158E+00
DAV:   2    -0.870617017626E+03   -0.63823E-01   -0.70479E-01 21264   0.133E+00    0.924E-01
DAV:   3    -0.870617978936E+03   -0.96131E-03   -0.21475E-02 26768   0.302E-01    0.714E-01
DAV:   4    -0.870620756683E+03   -0.27777E-02   -0.14995E-02 28368   0.233E-01    0.988E-01
DAV:   5    -0.870617675343E+03    0.30813E-02   -0.10721E-02 25520   0.202E-01    0.306E-01
DAV:   6    -0.870618100375E+03   -0.42503E-03   -0.33304E-03 25696   0.113E-01    0.288E-01
DAV:   7    -0.870617746656E+03    0.35372E-03   -0.90999E-04 20112   0.639E-02    0.104E-01
DAV:   8    -0.870617741147E+03    0.55082E-05   -0.13313E-04 12816   0.253E-02
  34 F= -.87061774E+03 E0= -.87058567E+03  d E =-.239167E-01  mag=     0.0000
       N       E                     dE             d eps       ncg     rms          rms(c)
DAV:   1    -0.870592836074E+03    0.24911E-01   -0.15174E+01 20160   0.743E+00    0.129E+00
DAV:   2    -0.870634898910E+03   -0.42063E-01   -0.48825E-01 25248   0.111E+00    0.829E-01
DAV:   3    -0.870634015322E+03    0.88359E-03   -0.16568E-02 25328   0.276E-01    0.649E-01
DAV:   4    -0.870633783166E+03    0.23216E-03   -0.10352E-02 25936   0.172E-01    0.597E-01
DAV:   5    -0.870634178592E+03   -0.39543E-03   -0.95560E-03 25536   0.175E-01    0.589E-01
DAV:   6    -0.870632893774E+03    0.12848E-02   -0.43761E-03 25424   0.130E-01    0.206E-01
DAV:   7    -0.870632939388E+03   -0.45614E-04   -0.68565E-04 20160   0.629E-02
  35 F= -.87063294E+03 E0= -.87060084E+03  d E =-.151982E-01  mag=     0.0000
       N       E                     dE             d eps       ncg     rms          rms(c)
DAV:   1    -0.870632765441E+03    0.12833E-03   -0.62112E-02 20656   0.476E-01    0.104E-01
DAV:   2    -0.870632989105E+03   -0.22366E-03   -0.21929E-03 24352   0.758E-02    0.991E-02
DAV:   3    -0.870632990469E+03   -0.13649E-05   -0.26995E-04 13328   0.337E-02    0.770E-02
DAV:   4    -0.870632981347E+03    0.91228E-05   -0.12144E-04 12768   0.238E-02    0.509E-02
DAV:   5    -0.870632994705E+03   -0.13358E-04   -0.57135E-05 13200   0.152E-02    0.471E-02
DAV:   6    -0.870633016095E+03   -0.21391E-04   -0.26351E-05 13440   0.117E-02
  36 F= -.87063302E+03 E0= -.87060089E+03  d E =-.152749E-01  mag=     0.0000
       N       E                     dE             d eps       ncg     rms          rms(c)
DAV:   1    -0.870634544282E+03   -0.15496E-02   -0.26555E+00 20176   0.306E+00    0.610E-01
DAV:   2    -0.870641338945E+03   -0.67947E-02   -0.77531E-02 23280   0.432E-01    0.354E-01
DAV:   3    -0.870641403735E+03   -0.64790E-04   -0.29959E-03 26320   0.121E-01    0.287E-01
DAV:   4    -0.870641665229E+03   -0.26149E-03   -0.25140E-03 22736   0.969E-02    0.361E-01
DAV:   5    -0.870641436114E+03    0.22912E-03   -0.24810E-03 20992   0.932E-02    0.258E-01
DAV:   6    -0.870641197121E+03    0.23899E-03   -0.85233E-04 16496   0.617E-02    0.983E-02
DAV:   7    -0.870641169963E+03    0.27157E-04   -0.13070E-04 12272   0.305E-02
  37 F= -.87064117E+03 E0= -.87060904E+03  d E =-.815387E-02  mag=     0.0000
       N       E                     dE             d eps       ncg     rms          rms(c)
DAV:   1    -0.870640798161E+03    0.39896E-03   -0.35287E-01 20368   0.112E+00    0.233E-01
DAV:   2    -0.870641742118E+03   -0.94396E-03   -0.10559E-02 23616   0.161E-01    0.137E-01
DAV:   3    -0.870641811975E+03   -0.69857E-04   -0.57227E-04 22480   0.559E-02    0.179E-01
DAV:   4    -0.870641690224E+03    0.12175E-03   -0.15294E-04 12384   0.300E-02    0.687E-02
DAV:   5    -0.870641783564E+03   -0.93339E-04   -0.21468E-04 12656   0.302E-02    0.125E-01
DAV:   6    -0.870641724465E+03    0.59099E-04   -0.23598E-04 13296   0.300E-02
  38 F= -.87064172E+03 E0= -.87060955E+03  d E =-.870837E-02  mag=     0.0000
       N       E                     dE             d eps       ncg     rms          rms(c)
DAV:   1    -0.870643534319E+03   -0.17508E-02   -0.17418E+00 20256   0.267E+00    0.581E-01
DAV:   2    -0.870649933407E+03   -0.63991E-02   -0.68316E-02 21568   0.424E-01    0.466E-01
DAV:   3    -0.870650297394E+03   -0.36399E-03   -0.49001E-03 26800   0.139E-01    0.403E-01
DAV:   4    -0.870649984493E+03    0.31290E-03   -0.33243E-03 22784   0.105E-01    0.325E-01
DAV:   5    -0.870650039714E+03   -0.55221E-04   -0.17533E-03 16864   0.779E-02    0.277E-01
DAV:   6    -0.870649786027E+03    0.25369E-03   -0.10557E-03 14448   0.646E-02    0.110E-01
DAV:   7    -0.870649773404E+03    0.12623E-04   -0.20709E-04 12576   0.373E-02
  39 F= -.87064977E+03 E0= -.87061750E+03  d E =-.804894E-02  mag=     0.0000
       N       E                     dE             d eps       ncg     rms          rms(c)
DAV:   1    -0.870641423814E+03    0.83622E-02   -0.33721E+00 20224   0.372E+00    0.814E-01
DAV:   2    -0.870653559669E+03   -0.12136E-01   -0.13150E-01 21520   0.591E-01    0.588E-01
DAV:   3    -0.870654327365E+03   -0.76770E-03   -0.78051E-03 27024   0.183E-01    0.515E-01
DAV:   4    -0.870654043121E+03    0.28424E-03   -0.63657E-03 24720   0.145E-01    0.479E-01
DAV:   5    -0.870653832058E+03    0.21106E-03   -0.31534E-03 22480   0.105E-01    0.334E-01
DAV:   6    -0.870653546143E+03    0.28592E-03   -0.16742E-03 19296   0.811E-02    0.166E-01
DAV:   7    -0.870653477437E+03    0.68705E-04   -0.37859E-04 13632   0.473E-02
  40 F= -.87065348E+03 E0= -.87062108E+03  d E =-.117530E-01  mag=     0.0000
       N       E                     dE             d eps       ncg     rms          rms(c)
DAV:   1    -0.870651491533E+03    0.20546E-02   -0.26232E+00 20240   0.312E+00    0.556E-01
DAV:   2    -0.870659792095E+03   -0.83006E-02   -0.91775E-02 22800   0.470E-01    0.396E-01
DAV:   3    -0.870660000344E+03   -0.20825E-03   -0.38709E-03 25184   0.120E-01    0.329E-01
DAV:   4    -0.870659922735E+03    0.77610E-04   -0.24816E-03 22528   0.895E-02    0.303E-01
DAV:   5    -0.870659991328E+03   -0.68593E-04   -0.20294E-03 19664   0.807E-02    0.292E-01
DAV:   6    -0.870659702619E+03    0.28871E-03   -0.93609E-04 17824   0.617E-02    0.847E-02
DAV:   7    -0.870659718660E+03   -0.16041E-04   -0.11807E-04 12960   0.273E-02
  41 F= -.87065972E+03 E0= -.87062722E+03  d E =-.624122E-02  mag=     0.0000
       N       E                     dE             d eps       ncg     rms          rms(c)
DAV:   1    -0.870656993783E+03    0.27088E-02   -0.12714E+00 20288   0.217E+00    0.386E-01
DAV:   2    -0.870661039546E+03   -0.40458E-02   -0.44695E-02 22800   0.328E-01    0.296E-01
DAV:   3    -0.870661160604E+03   -0.12106E-03   -0.22215E-03 25120   0.897E-02    0.250E-01
DAV:   4    -0.870661074626E+03    0.85978E-04   -0.13072E-03 19040   0.659E-02    0.209E-01
DAV:   5    -0.870661153505E+03   -0.78879E-04   -0.96261E-04 15808   0.578E-02    0.211E-01
DAV:   6    -0.870660991339E+03    0.16217E-03   -0.47912E-04 13520   0.462E-02    0.580E-02
DAV:   7    -0.870661005015E+03   -0.13676E-04   -0.74089E-05 13200   0.226E-02
  42 F= -.87066101E+03 E0= -.87062841E+03  d E =-.752758E-02  mag=     0.0000
       N       E                     dE             d eps       ncg     rms          rms(c)
DAV:   1    -0.870661310157E+03   -0.31882E-03   -0.15985E+00 20224   0.247E+00    0.572E-01
DAV:   2    -0.870666250895E+03   -0.49407E-02   -0.54731E-02 22784   0.382E-01    0.368E-01
DAV:   3    -0.870666637462E+03   -0.38657E-03   -0.34056E-03 26256   0.107E-01    0.346E-01
DAV:   4    -0.870666458977E+03    0.17848E-03   -0.29147E-03 21840   0.944E-02    0.302E-01
DAV:   5    -0.870666621921E+03   -0.16294E-03   -0.20644E-03 17328   0.841E-02    0.307E-01
DAV:   6    -0.870666250769E+03    0.37115E-03   -0.87682E-04 15328   0.627E-02    0.103E-01
DAV:   7    -0.870666241183E+03    0.95866E-05   -0.14605E-04 11968   0.302E-02
  43 F= -.87066624E+03 E0= -.87063360E+03  d E =-.523617E-02  mag=     0.0000
       N       E                     dE             d eps       ncg     rms          rms(c)
DAV:   1    -0.870665565632E+03    0.68514E-03   -0.38040E-01 20352   0.121E+00    0.284E-01
DAV:   2    -0.870666729428E+03   -0.11638E-02   -0.13078E-02 22816   0.186E-01    0.163E-01
DAV:   3    -0.870666793247E+03   -0.63820E-04   -0.56181E-04 23488   0.448E-02    0.130E-01
DAV:   4    -0.870666842933E+03   -0.49685E-04   -0.57710E-04 15264   0.423E-02    0.168E-01
DAV:   5    -0.870666813892E+03    0.29040E-04   -0.45699E-04 12224   0.409E-02    0.117E-01
DAV:   6    -0.870666764545E+03    0.49348E-04   -0.16428E-04 13280   0.278E-02
  44 F= -.87066676E+03 E0= -.87063408E+03  d E =-.575953E-02  mag=     0.0000
       N       E                     dE             d eps       ncg     rms          rms(c)
DAV:   1    -0.870667519375E+03   -0.70548E-03   -0.10710E+00 20272   0.197E+00    0.527E-01
DAV:   2    -0.870670592135E+03   -0.30728E-02   -0.33140E-02 22336   0.285E-01    0.305E-01
DAV:   3    -0.870670789194E+03   -0.19706E-03   -0.16198E-03 26672   0.876E-02    0.254E-01
DAV:   4    -0.870670717030E+03    0.72165E-04   -0.98112E-04 21360   0.705E-02    0.214E-01
DAV:   5    -0.870670726138E+03   -0.91085E-05   -0.51995E-04 15536   0.552E-02    0.183E-01
DAV:   6    -0.870670592170E+03    0.13397E-03   -0.40768E-04 12864   0.427E-02    0.605E-02
DAV:   7    -0.870670594502E+03   -0.23322E-05   -0.10204E-04 12912   0.223E-02
  45 F= -.87067059E+03 E0= -.87063789E+03  d E =-.382996E-02  mag=     0.0000
       N       E                     dE             d eps       ncg     rms          rms(c)
DAV:   1    -0.870669037087E+03    0.15551E-02   -0.90961E-01 20272   0.181E+00    0.489E-01
DAV:   2    -0.870671617485E+03   -0.25804E-02   -0.28120E-02 22624   0.262E-01    0.263E-01
DAV:   3    -0.870671717304E+03   -0.99819E-04   -0.10841E-03 25760   0.702E-02    0.184E-01
DAV:   4    -0.870671820558E+03   -0.10325E-03   -0.85722E-04 20224   0.583E-02    0.219E-01
DAV:   5    -0.870671650985E+03    0.16957E-03   -0.44325E-04 15472   0.481E-02    0.588E-02
DAV:   6    -0.870671649297E+03    0.16879E-05   -0.10256E-04 13344   0.264E-02
  46 F= -.87067165E+03 E0= -.87063896E+03  d E =-.488475E-02  mag=    -0.0000
       N       E                     dE             d eps       ncg     rms          rms(c)
DAV:   1    -0.870668705159E+03    0.29458E-02   -0.20080E+00 20192   0.275E+00    0.520E-01
DAV:   2    -0.870675888241E+03   -0.71831E-02   -0.77808E-02 22368   0.437E-01    0.315E-01
DAV:   3    -0.870676108431E+03   -0.22019E-03   -0.30403E-03 26704   0.105E-01    0.295E-01
DAV:   4    -0.870675974317E+03    0.13411E-03   -0.14486E-03 16032   0.731E-02    0.223E-01
DAV:   5    -0.870676036412E+03   -0.62096E-04   -0.91150E-04 17904   0.661E-02    0.209E-01
DAV:   6    -0.870675896084E+03    0.14033E-03   -0.41337E-04 15520   0.492E-02    0.728E-02
DAV:   7    -0.870675894082E+03    0.20025E-05   -0.12212E-04 12512   0.262E-02
  47 F= -.87067589E+03 E0= -.87064318E+03  d E =-.424478E-02  mag=    -0.0000
       N       E                     dE             d eps       ncg     rms          rms(c)
DAV:   1    -0.870672093503E+03    0.38026E-02   -0.13645E+00 20192   0.226E+00    0.428E-01
DAV:   2    -0.870676988135E+03   -0.48946E-02   -0.53076E-02 22464   0.360E-01    0.267E-01
DAV:   3    -0.870677109060E+03   -0.12092E-03   -0.19516E-03 25744   0.836E-02    0.227E-01
DAV:   4    -0.870677054933E+03    0.54127E-04   -0.94722E-04 15568   0.569E-02    0.186E-01
DAV:   5    -0.870677166332E+03   -0.11140E-03   -0.76344E-04 14288   0.584E-02    0.209E-01
DAV:   6    -0.870677005057E+03    0.16127E-03   -0.40595E-04 14112   0.477E-02    0.663E-02
DAV:   7    -0.870677013344E+03   -0.82864E-05   -0.91767E-05 12304   0.239E-02
  48 F= -.87067701E+03 E0= -.87064430E+03  d E =-.536405E-02  mag=    -0.0000
       N       E                     dE             d eps       ncg     rms          rms(c)
DAV:   1    -0.870677275504E+03   -0.27045E-03   -0.92118E-01 20192   0.184E+00    0.387E-01
DAV:   2    -0.870680416024E+03   -0.31405E-02   -0.34479E-02 21984   0.295E-01    0.231E-01
DAV:   3    -0.870680553353E+03   -0.13733E-03   -0.12979E-03 25952   0.694E-02    0.176E-01
DAV:   4    -0.870680602910E+03   -0.49557E-04   -0.85045E-04 15248   0.573E-02    0.198E-01
DAV:   5    -0.870680666076E+03   -0.63166E-04   -0.77433E-04 12512   0.556E-02    0.187E-01
DAV:   6    -0.870680520609E+03    0.14547E-03   -0.36426E-04 12880   0.440E-02    0.476E-02
DAV:   7    -0.870680527747E+03   -0.71383E-05   -0.59532E-05 12800   0.190E-02
  49 F= -.87068053E+03 E0= -.87064778E+03  d E =-.351440E-02  mag=    -0.0000
       N       E                     dE             d eps       ncg     rms          rms(c)
DAV:   1    -0.870676577357E+03    0.39433E-02   -0.15606E+00 20192   0.239E+00    0.506E-01
DAV:   2    -0.870681868753E+03   -0.52914E-02   -0.58232E-02 21920   0.383E-01    0.294E-01
DAV:   3    -0.870682062814E+03   -0.19406E-03   -0.19121E-03 26720   0.854E-02    0.206E-01
DAV:   4    -0.870682221926E+03   -0.15911E-03   -0.11369E-03 18064   0.694E-02    0.264E-01
DAV:   5    -0.870682257044E+03   -0.35118E-04   -0.12827E-03 14352   0.705E-02    0.225E-01
DAV:   6    -0.870682046600E+03    0.21044E-03   -0.57462E-04 13024   0.517E-02    0.581E-02
DAV:   7    -0.870682054759E+03   -0.81589E-05   -0.87350E-05 13040   0.231E-02
  50 F= -.87068205E+03 E0= -.87064927E+03  d E =-.504141E-02  mag=    -0.0000
       N       E                     dE             d eps       ncg     rms          rms(c)
DAV:   1    -0.870680665843E+03    0.13808E-02   -0.15195E+00 20224   0.231E+00    0.473E-01
DAV:   2    -0.870685217572E+03   -0.45517E-02   -0.49781E-02 21920   0.347E-01    0.311E-01
DAV:   3    -0.870685445182E+03   -0.22761E-03   -0.23043E-03 26912   0.985E-02    0.263E-01
DAV:   4    -0.870685399462E+03    0.45720E-04   -0.13382E-03 20464   0.767E-02    0.260E-01
DAV:   5    -0.870685441554E+03   -0.42092E-04   -0.81671E-04 16048   0.636E-02    0.223E-01
DAV:   6    -0.870685292181E+03    0.14937E-03   -0.66235E-04 13824   0.499E-02    0.887E-02
DAV:   7    -0.870685277549E+03    0.14632E-04   -0.17653E-04 13424   0.296E-02
  51 F= -.87068528E+03 E0= -.87065241E+03  d E =-.322279E-02  mag=    -0.0000
       N       E                     dE             d eps       ncg     rms          rms(c)
DAV:   1    -0.870681661995E+03    0.36302E-02   -0.14803E+00 20192   0.229E+00    0.470E-01
DAV:   2    -0.870686067259E+03   -0.44053E-02   -0.48406E-02 22000   0.343E-01    0.296E-01
DAV:   3    -0.870686291491E+03   -0.22423E-03   -0.21101E-03 26672   0.964E-02    0.247E-01
DAV:   4    -0.870686302683E+03   -0.11192E-04   -0.13270E-03 20720   0.763E-02    0.268E-01
DAV:   5    -0.870686278993E+03    0.23690E-04   -0.80667E-04 15616   0.629E-02    0.208E-01
DAV:   6    -0.870686153997E+03    0.12500E-03   -0.62578E-04 13872   0.480E-02    0.868E-02
DAV:   7    -0.870686136171E+03    0.17826E-04   -0.15817E-04 13344   0.287E-02
  52 F= -.87068614E+03 E0= -.87065322E+03  d E =-.408141E-02  mag=    -0.0000
       N       E                     dE             d eps       ncg     rms          rms(c)
DAV:   1    -0.870685140591E+03    0.10134E-02   -0.84173E-01 20256   0.178E+00    0.372E-01
DAV:   2    -0.870688043200E+03   -0.29026E-02   -0.32499E-02 22560   0.290E-01    0.231E-01
DAV:   3    -0.870688125823E+03   -0.82623E-04   -0.11094E-03 25312   0.713E-02    0.169E-01
DAV:   4    -0.870688146981E+03   -0.21158E-04   -0.46368E-04 16256   0.516E-02    0.171E-01
DAV:   5    -0.870688144463E+03    0.25172E-05   -0.35491E-04 13696   0.436E-02    0.108E-01
DAV:   6    -0.870688117407E+03    0.27057E-04   -0.23848E-04 12992   0.343E-02
  53 F= -.87068812E+03 E0= -.87065522E+03  d E =-.198124E-02  mag=    -0.0000
       N       E                     dE             d eps       ncg     rms          rms(c)
DAV:   1    -0.870686071245E+03    0.20732E-02   -0.71097E-01 20240   0.163E+00    0.345E-01
DAV:   2    -0.870688562782E+03   -0.24915E-02   -0.27669E-02 22656   0.269E-01    0.240E-01
DAV:   3    -0.870688709172E+03   -0.14639E-03   -0.14755E-03 24928   0.773E-02    0.231E-01
DAV:   4    -0.870688615220E+03    0.93951E-04   -0.88124E-04 15200   0.590E-02    0.169E-01
DAV:   5    -0.870688671229E+03   -0.56009E-04   -0.58822E-04 12224   0.498E-02    0.171E-01
DAV:   6    -0.870688575003E+03    0.96225E-04   -0.30236E-04 13216   0.409E-02
  54 F= -.87068858E+03 E0= -.87065573E+03  d E =-.243883E-02  mag=    -0.0000
       N       E                     dE             d eps       ncg     rms          rms(c)
DAV:   1    -0.870688287520E+03    0.38371E-03   -0.69363E-01 20192   0.160E+00    0.342E-01
DAV:   2    -0.870690495695E+03   -0.22082E-02   -0.23302E-02 21696   0.244E-01    0.292E-01
DAV:   3    -0.870690571514E+03   -0.75818E-04   -0.15744E-03 24576   0.833E-02    0.230E-01
DAV:   4    -0.870690497810E+03    0.73703E-04   -0.86133E-04 16944   0.664E-02    0.198E-01
DAV:   5    -0.870690580207E+03   -0.82397E-04   -0.54090E-04 12352   0.515E-02    0.188E-01
DAV:   6    -0.870690441759E+03    0.13845E-03   -0.52461E-04 12384   0.459E-02    0.698E-02
DAV:   7    -0.870690438272E+03    0.34879E-05   -0.91157E-05 12736   0.215E-02
  55 F= -.87069044E+03 E0= -.87065754E+03  d E =-.186327E-02  mag=    -0.0000
       N       E                     dE             d eps       ncg     rms          rms(c)
DAV:   1    -0.870687876067E+03    0.25657E-02   -0.10429E+00 20160   0.196E+00    0.423E-01
DAV:   2    -0.870691044549E+03   -0.31685E-02   -0.34577E-02 21728   0.295E-01    0.280E-01
DAV:   3    -0.870691253256E+03   -0.20871E-03   -0.15341E-03 25696   0.816E-02    0.237E-01
DAV:   4    -0.870691299616E+03   -0.46360E-04   -0.11762E-03 20048   0.773E-02    0.271E-01
DAV:   5    -0.870691284176E+03    0.15440E-04   -0.82559E-04 13264   0.635E-02    0.207E-01
DAV:   6    -0.870691117593E+03    0.16658E-03   -0.63640E-04 12256   0.489E-02    0.613E-02
DAV:   7    -0.870691121935E+03   -0.43418E-05   -0.92735E-05 13200   0.227E-02
  56 F= -.87069112E+03 E0= -.87065820E+03  d E =-.254693E-02  mag=    -0.0000
       N       E                     dE             d eps       ncg     rms          rms(c)
DAV:   1    -0.870689763603E+03    0.13540E-02   -0.12617E+00 20160   0.205E+00    0.369E-01
DAV:   2    -0.870692892121E+03   -0.31285E-02   -0.33511E-02 22256   0.271E-01    0.252E-01
DAV:   3    -0.870693313798E+03   -0.42168E-03   -0.24087E-03 26000   0.965E-02    0.328E-01
DAV:   4    -0.870692992943E+03    0.32085E-03   -0.19283E-03 16544   0.870E-02    0.218E-01
DAV:   5    -0.870692935626E+03    0.57317E-04   -0.49220E-04 13920   0.504E-02    0.927E-02
DAV:   6    -0.870692921436E+03    0.14190E-04   -0.16475E-04 13344   0.324E-02
  57 F= -.87069292E+03 E0= -.87065993E+03  d E =-.179950E-02  mag=    -0.0000
       N       E                     dE             d eps       ncg     rms          rms(c)
DAV:   1    -0.870692121677E+03    0.81395E-03   -0.39130E-01 20224   0.114E+00    0.206E-01
DAV:   2    -0.870693126358E+03   -0.10047E-02   -0.10514E-02 22208   0.153E-01    0.171E-01
DAV:   3    -0.870693256503E+03   -0.13014E-03   -0.84560E-04 20736   0.621E-02    0.202E-01
DAV:   4    -0.870693135763E+03    0.12074E-03   -0.65558E-04 12528   0.551E-02    0.126E-01
DAV:   5    -0.870693130467E+03    0.52954E-05   -0.26647E-04 12016   0.323E-02    0.815E-02
DAV:   6    -0.870693114474E+03    0.15993E-04   -0.10850E-04 13072   0.231E-02
  58 F= -.87069311E+03 E0= -.87066002E+03  d E =-.199254E-02  mag=    -0.0000
       N       E                     dE             d eps       ncg     rms          rms(c)
DAV:   1    -0.870692235043E+03    0.89542E-03   -0.73970E-01 20192   0.164E+00    0.350E-01
DAV:   2    -0.870694670041E+03   -0.24350E-02   -0.26314E-02 21616   0.250E-01    0.257E-01
DAV:   3    -0.870695089529E+03   -0.41949E-03   -0.24012E-03 25312   0.988E-02    0.342E-01
DAV:   4    -0.870694639830E+03    0.44970E-03   -0.15808E-03 15296   0.782E-02    0.161E-01
DAV:   5    -0.870694694910E+03   -0.55080E-04   -0.34933E-04 12160   0.434E-02    0.112E-01
DAV:   6    -0.870694647785E+03    0.47125E-04   -0.15183E-04 13392   0.300E-02
  59 F= -.87069465E+03 E0= -.87066152E+03  d E =-.153331E-02  mag=    -0.0000
       N       E                     dE             d eps       ncg     rms          rms(c)
DAV:   1    -0.870690772462E+03    0.39224E-02   -0.13677E+00 20160   0.223E+00    0.479E-01
DAV:   2    -0.870695220474E+03   -0.44480E-02   -0.48543E-02 21536   0.338E-01    0.326E-01
DAV:   3    -0.870695907592E+03   -0.68712E-03   -0.35494E-03 26688   0.125E-01    0.435E-01
DAV:   4    -0.870695227426E+03    0.68017E-03   -0.23753E-03 17808   0.999E-02    0.216E-01
DAV:   5    -0.870695378152E+03   -0.15073E-03   -0.91911E-04 15952   0.596E-02    0.197E-01
DAV:   6    -0.870695223993E+03    0.15416E-03   -0.43887E-04 15104   0.405E-02    0.680E-02
DAV:   7    -0.870695219582E+03    0.44106E-05   -0.80329E-05 12608   0.214E-02
  60 F= -.87069522E+03 E0= -.87066196E+03  d E =-.210511E-02  mag=    -0.0000
       N       E                     dE             d eps       ncg     rms          rms(c)
DAV:   1    -0.870694471456E+03    0.75254E-03   -0.57408E-01 20288   0.145E+00    0.298E-01
DAV:   2    -0.870696252145E+03   -0.17807E-02   -0.19433E-02 21312   0.210E-01    0.164E-01
DAV:   3    -0.870696303787E+03   -0.51643E-04   -0.55751E-04 23296   0.433E-02    0.123E-01
DAV:   4    -0.870696397063E+03   -0.93275E-04   -0.44428E-04 13888   0.396E-02    0.162E-01
DAV:   5    -0.870696348978E+03    0.48084E-04   -0.46888E-04 12672   0.444E-02    0.105E-01
DAV:   6    -0.870696309239E+03    0.39739E-04   -0.13661E-04 12128   0.258E-02
  61 F= -.87069631E+03 E0= -.87066302E+03  d E =-.108966E-02  mag=    -0.0000
       N       E                     dE             d eps       ncg     rms          rms(c)
DAV:   1    -0.870691322255E+03    0.50267E-02   -0.16769E+00 20208   0.248E+00    0.506E-01
DAV:   2    -0.870696542739E+03   -0.52205E-02   -0.56683E-02 21280   0.360E-01    0.286E-01
DAV:   3    -0.870696711175E+03   -0.16844E-03   -0.16995E-03 26592   0.785E-02    0.227E-01
DAV:   4    -0.870696966381E+03   -0.25521E-03   -0.12493E-03 17696   0.748E-02    0.304E-01
DAV:   5    -0.870696806854E+03    0.15953E-03   -0.13197E-03 14896   0.756E-02    0.199E-01
DAV:   6    -0.870696664413E+03    0.14244E-03   -0.50301E-04 14048   0.442E-02    0.618E-02
DAV:   7    -0.870696659133E+03    0.52807E-05   -0.86314E-05 12448   0.216E-02
  62 F= -.87069666E+03 E0= -.87066333E+03  d E =-.143955E-02  mag=    -0.0000
       N       E                     dE             d eps       ncg     rms          rms(c)
DAV:   1    -0.870696443615E+03    0.22080E-03   -0.10265E-01 20384   0.612E-01    0.123E-01
DAV:   2    -0.870696768893E+03   -0.32528E-03   -0.34359E-03 21360   0.898E-02    0.935E-02
DAV:   3    -0.870696814046E+03   -0.45153E-04   -0.27359E-04 15776   0.352E-02    0.123E-01
DAV:   4    -0.870696755099E+03    0.58946E-04   -0.17039E-04 12080   0.281E-02    0.502E-02
DAV:   5    -0.870696774143E+03   -0.19043E-04   -0.61073E-05 12704   0.165E-02    0.558E-02
DAV:   6    -0.870696764146E+03    0.99964E-05   -0.32853E-05 13520   0.127E-02
  63 F= -.87069676E+03 E0= -.87066342E+03  d E =-.154456E-02  mag=    -0.0000
       N       E                     dE             d eps       ncg     rms          rms(c)
DAV:   1    -0.870695983034E+03    0.79111E-03   -0.51458E-01 20256   0.142E+00    0.270E-01
DAV:   2    -0.870697790491E+03   -0.18075E-02   -0.19577E-02 21520   0.220E-01    0.193E-01
DAV:   3    -0.870697843491E+03   -0.53001E-04   -0.75581E-04 24336   0.578E-02    0.159E-01
DAV:   4    -0.870697835244E+03    0.82477E-05   -0.45787E-04 13712   0.473E-02    0.155E-01
DAV:   5    -0.870697830568E+03    0.46762E-05   -0.39132E-04 12832   0.418E-02    0.136E-01
DAV:   6    -0.870697770171E+03    0.60397E-04   -0.19781E-04 13136   0.318E-02
  64 F= -.87069777E+03 E0= -.87066445E+03  d E =-.100602E-02  mag=    -0.0000
       N       E                     dE             d eps       ncg     rms          rms(c)
DAV:   1    -0.870693818360E+03    0.40122E-02   -0.11680E+00 20224   0.214E+00    0.414E-01
DAV:   2    -0.870697921072E+03   -0.41027E-02   -0.44733E-02 21664   0.333E-01    0.280E-01
DAV:   3    -0.870698000001E+03   -0.78930E-04   -0.15403E-03 26592   0.790E-02    0.196E-01
DAV:   4    -0.870698032396E+03   -0.32395E-04   -0.68814E-04 17392   0.579E-02    0.218E-01
DAV:   5    -0.870698099026E+03   -0.66630E-04   -0.78657E-04 13264   0.614E-02    0.225E-01
DAV:   6    -0.870697890077E+03    0.20895E-03   -0.49355E-04 13344   0.491E-02    0.468E-02
DAV:   7    -0.870697903011E+03   -0.12934E-04   -0.93518E-05 13152   0.225E-02
  65 F= -.87069790E+03 E0= -.87066455E+03  d E =-.113886E-02  mag=    -0.0000
       N       E                     dE             d eps       ncg     rms          rms(c)
DAV:   1    -0.870697655686E+03    0.23439E-03   -0.11647E-01 20384   0.673E-01    0.127E-01
DAV:   2    -0.870698066080E+03   -0.41039E-03   -0.43931E-03 21632   0.105E-01    0.105E-01
DAV:   3    -0.870698063354E+03    0.27260E-05   -0.17165E-04 16208   0.301E-02    0.750E-02
DAV:   4    -0.870698057500E+03    0.58537E-05   -0.92991E-05 12544   0.247E-02    0.683E-02
DAV:   5    -0.870698067258E+03   -0.97580E-05   -0.90871E-05 12736   0.201E-02    0.737E-02
DAV:   6    -0.870698048838E+03    0.18420E-04   -0.57615E-05 12800   0.175E-02
  66 F= -.87069805E+03 E0= -.87066471E+03  d E =-.128469E-02  mag=    -0.0000
       N       E                     dE             d eps       ncg     rms          rms(c)
DAV:   1    -0.870696562642E+03    0.15046E-02   -0.63138E-01 20256   0.161E+00    0.325E-01
DAV:   2    -0.870699080044E+03   -0.25174E-02   -0.27422E-02 21536   0.260E-01    0.209E-01
DAV:   3    -0.870699130877E+03   -0.50833E-04   -0.73068E-04 23488   0.558E-02    0.139E-01
DAV:   4    -0.870699206117E+03   -0.75240E-04   -0.49249E-04 15344   0.476E-02    0.189E-01
DAV:   5    -0.870699163080E+03    0.43037E-04   -0.46815E-04 12624   0.456E-02    0.125E-01
DAV:   6    -0.870699112216E+03    0.50864E-04   -0.21095E-04 13040   0.318E-02
  67 F= -.87069911E+03 E0= -.87066579E+03  d E =-.106338E-02  mag=    -0.0000
       N       E                     dE             d eps       ncg     rms          rms(c)
DAV:   1    -0.870676724285E+03    0.22439E-01   -0.56718E+00 20160   0.483E+00    0.980E-01
DAV:   2    -0.870699605571E+03   -0.22881E-01   -0.24801E-01 21440   0.781E-01    0.658E-01
DAV:   3    -0.870700169573E+03   -0.56400E-03   -0.79578E-03 27776   0.184E-01    0.460E-01
DAV:   4    -0.870700765908E+03   -0.59633E-03   -0.64643E-03 25760   0.157E-01    0.599E-01
DAV:   5    -0.870700441434E+03    0.32447E-03   -0.48357E-03 24192   0.134E-01    0.480E-01
DAV:   6    -0.870699660348E+03    0.78109E-03   -0.17872E-03 23792   0.963E-02    0.132E-01
DAV:   7    -0.870699678780E+03   -0.18432E-04   -0.47887E-04 16064   0.439E-02
  68 F= -.87069968E+03 E0= -.87066629E+03  d E =-.162994E-02  mag=    -0.0000
       N       E                     dE             d eps       ncg     rms          rms(c)
DAV:   1    -0.870697526067E+03    0.21343E-02   -0.59295E-01 20320   0.156E+00    0.313E-01
DAV:   2    -0.870699960119E+03   -0.24341E-02   -0.25800E-02 21312   0.255E-01    0.250E-01
DAV:   3    -0.870700087003E+03   -0.12688E-03   -0.15600E-03 23744   0.789E-02    0.239E-01
DAV:   4    -0.870699950307E+03    0.13670E-03   -0.10324E-03 13648   0.647E-02    0.171E-01
DAV:   5    -0.870699966763E+03   -0.16456E-04   -0.39516E-04 13152   0.456E-02    0.159E-01
DAV:   6    -0.870699901964E+03    0.64800E-04   -0.20790E-04 13248   0.381E-02
  69 F= -.87069990E+03 E0= -.87066657E+03  d E =-.185313E-02  mag=    -0.0000
       N       E                     dE             d eps       ncg     rms          rms(c)
DAV:   1    -0.870698588166E+03    0.13786E-02   -0.30118E-01 20336   0.112E+00    0.230E-01
DAV:   2    -0.870699856196E+03   -0.12680E-02   -0.13351E-02 21664   0.184E-01    0.191E-01
DAV:   3    -0.870699912125E+03   -0.55929E-04   -0.77719E-04 21024   0.584E-02    0.170E-01
DAV:   4    -0.870699850339E+03    0.61787E-04   -0.47460E-04 12704   0.483E-02    0.126E-01
DAV:   5    -0.870699850516E+03   -0.17716E-06   -0.22908E-04 12352   0.326E-02    0.106E-01
DAV:   6    -0.870699830232E+03    0.20284E-04   -0.98646E-05 13072   0.238E-02
  70 F= -.87069983E+03 E0= -.87066648E+03  d E =-.178139E-02  mag=    -0.0000
       N       E                     dE             d eps       ncg     rms          rms(c)
DAV:   1    -0.870699635998E+03    0.21452E-03   -0.61643E-02 20368   0.503E-01    0.108E-01
DAV:   2    -0.870699893757E+03   -0.25776E-03   -0.26938E-03 21728   0.831E-02    0.792E-02
DAV:   3    -0.870699911975E+03   -0.18218E-04   -0.20948E-04 13152   0.283E-02    0.920E-02
DAV:   4    -0.870699878243E+03    0.33732E-04   -0.75628E-05 12000   0.194E-02    0.387E-02
DAV:   5    -0.870699889434E+03   -0.11190E-04   -0.24934E-05 11856   0.116E-02    0.483E-02
DAV:   6    -0.870699884049E+03    0.53852E-05   -0.22672E-05 13056   0.118E-02
  71 F= -.87069988E+03 E0= -.87066653E+03  d E =-.183521E-02  mag=    -0.0000
       N       E                     dE             d eps       ncg     rms          rms(c)
DAV:   1    -0.870699182202E+03    0.70723E-03   -0.33766E-01 20256   0.120E+00    0.261E-01
DAV:   2    -0.870700720765E+03   -0.15386E-02   -0.16916E-02 21792   0.212E-01    0.208E-01
DAV:   3    -0.870700771709E+03   -0.50945E-04   -0.81355E-04 22656   0.642E-02    0.182E-01
DAV:   4    -0.870700711098E+03    0.60611E-04   -0.46855E-04 13248   0.502E-02    0.144E-01
DAV:   5    -0.870700714754E+03   -0.36556E-05   -0.34715E-04 12656   0.390E-02    0.133E-01
DAV:   6    -0.870700658081E+03    0.56672E-04   -0.21903E-04 13216   0.299E-02
  72 F= -.87070066E+03 E0= -.87066726E+03  d E =-.774033E-03  mag=    -0.0000
       N       E                     dE             d eps       ncg     rms          rms(c)
DAV:   1    -0.870699660251E+03    0.10545E-02   -0.24457E-01 20256   0.102E+00    0.224E-01
DAV:   2    -0.870700787275E+03   -0.11270E-02   -0.12383E-02 22240   0.184E-01    0.200E-01
DAV:   3    -0.870700805978E+03   -0.18703E-04   -0.69727E-04 21056   0.599E-02    0.159E-01
DAV:   4    -0.870700779896E+03    0.26082E-04   -0.46323E-04 12960   0.486E-02    0.144E-01
DAV:   5    -0.870700746747E+03    0.33150E-04   -0.26830E-04 12352   0.341E-02    0.109E-01
DAV:   6    -0.870700716470E+03    0.30276E-04   -0.12988E-04 13088   0.261E-02
  73 F= -.87070072E+03 E0= -.87066730E+03  d E =-.832421E-03  mag=    -0.0000
       N       E                     dE             d eps       ncg     rms          rms(c)
DAV:   1    -0.870700314281E+03    0.43247E-03   -0.20544E-01 20320   0.930E-01    0.198E-01
DAV:   2    -0.870701154398E+03   -0.84012E-03   -0.89015E-03 21376   0.150E-01    0.162E-01
DAV:   3    -0.870701198119E+03   -0.43721E-04   -0.57776E-04 19072   0.501E-02    0.146E-01
DAV:   4    -0.870701170297E+03    0.27823E-04   -0.48737E-04 12704   0.451E-02    0.126E-01
DAV:   5    -0.870701148215E+03    0.22081E-04   -0.19912E-04 11904   0.304E-02    0.955E-02
DAV:   6    -0.870701127253E+03    0.20962E-04   -0.70636E-05 12976   0.224E-02
  74 F= -.87070113E+03 E0= -.87066776E+03  d E =-.410783E-03  mag=    -0.0000
       N       E                     dE             d eps       ncg     rms          rms(c)
DAV:   1    -0.870699627775E+03    0.15204E-02   -0.42365E-01 20224   0.133E+00    0.285E-01
DAV:   2    -0.870701350694E+03   -0.17229E-02   -0.18295E-02 21216   0.215E-01    0.221E-01
DAV:   3    -0.870701477967E+03   -0.12727E-03   -0.10643E-03 22192   0.711E-02    0.225E-01
DAV:   4    -0.870701355804E+03    0.12216E-03   -0.76026E-04 13824   0.608E-02    0.160E-01
DAV:   5    -0.870701357222E+03   -0.14185E-05   -0.41240E-04 12096   0.419E-02    0.139E-01
DAV:   6    -0.870701303002E+03    0.54220E-04   -0.19646E-04 12896   0.301E-02
  75 F= -.87070130E+03 E0= -.87066792E+03  d E =-.586532E-03  mag=    -0.0000
       N       E                     dE             d eps       ncg     rms          rms(c)
DAV:   1    -0.870701136876E+03    0.22035E-03   -0.16650E-01 20256   0.825E-01    0.171E-01
DAV:   2    -0.870701886740E+03   -0.74986E-03   -0.80502E-03 21920   0.141E-01    0.144E-01
DAV:   3    -0.870701888479E+03   -0.17395E-05   -0.43224E-04 19056   0.431E-02    0.113E-01
DAV:   4    -0.870701858772E+03    0.29707E-04   -0.18436E-04 12560   0.290E-02    0.712E-02
DAV:   5    -0.870701882590E+03   -0.23818E-04   -0.11335E-04 13248   0.221E-02    0.879E-02
DAV:   6    -0.870701862168E+03    0.20422E-04   -0.75580E-05 13088   0.205E-02
  76 F= -.87070186E+03 E0= -.87066853E+03  d E =-.559165E-03  mag=    -0.0000
       N       E                     dE             d eps       ncg     rms          rms(c)
DAV:   1    -0.870700608585E+03    0.12740E-02   -0.36385E-01 20224   0.122E+00    0.248E-01
DAV:   2    -0.870702166679E+03   -0.15581E-02   -0.17270E-02 21888   0.204E-01    0.161E-01
DAV:   3    -0.870702182539E+03   -0.15860E-04   -0.43894E-04 21632   0.477E-02    0.113E-01
DAV:   4    -0.870702220493E+03   -0.37955E-04   -0.22744E-04 13248   0.350E-02    0.138E-01
DAV:   5    -0.870702197330E+03    0.23163E-04   -0.25972E-04 13024   0.355E-02    0.976E-02
DAV:   6    -0.870702169796E+03    0.27534E-04   -0.12833E-04 13280   0.243E-02
  77 F= -.87070217E+03 E0= -.87066894E+03  d E =-.866794E-03  mag=    -0.0000
       N       E                     dE             d eps       ncg     rms          rms(c)
DAV:   1    -0.870701936224E+03    0.26111E-03   -0.18887E-01 20304   0.882E-01    0.186E-01
DAV:   2    -0.870702628828E+03   -0.69260E-03   -0.78034E-03 22256   0.146E-01    0.127E-01
DAV:   3    -0.870702700221E+03   -0.71394E-04   -0.54666E-04 18576   0.459E-02    0.152E-01
DAV:   4    -0.870702616515E+03    0.83706E-04   -0.33626E-04 12320   0.360E-02    0.795E-02
DAV:   5    -0.870702651839E+03   -0.35324E-04   -0.10750E-04 12064   0.250E-02    0.857E-02
DAV:   6    -0.870702621622E+03    0.30217E-04   -0.79875E-05 13184   0.211E-02
  78 F= -.87070262E+03 E0= -.87066937E+03  d E =-.451826E-03  mag=    -0.0000
