       N       E                     dE             d eps       ncg     rms          rms(c)
DAV:   1     0.140394476046E+05    0.14039E+05   -0.61039E+05 20704   0.134E+03
DAV:   2     0.386177248809E+03   -0.13653E+05   -0.12980E+05 23728   0.562E+02
DAV:   3    -0.100265479866E+04   -0.13888E+04   -0.13556E+04 20768   0.162E+02
DAV:   4    -0.105859721935E+04   -0.55942E+02   -0.54559E+02 24176   0.403E+01
DAV:   5    -0.106033452612E+04   -0.17373E+01   -0.17055E+01 22480   0.624E+00
DAV:   6    -0.106041167671E+04   -0.77151E-01   -0.76752E-01 24160   0.144E+00
DAV:   7    -0.106041516408E+04   -0.34874E-02   -0.34810E-02 22256   0.253E-01
DAV:   8    -0.106041536948E+04   -0.20540E-03   -0.20520E-03 19792   0.615E-02    0.346E+02
DAV:   9    -0.703250336390E+03    0.35717E+03   -0.15104E+03 22592   0.639E+01    0.285E+02
DAV:  10    -0.744804120779E+03   -0.41554E+02   -0.51011E+02 24000   0.445E+01    0.173E+02
DAV:  11    -0.612526605319E+03    0.13228E+03   -0.33193E+02 24400   0.347E+01    0.108E+02
DAV:  12    -0.617146721872E+03   -0.46201E+01   -0.31484E+02 23680   0.332E+01    0.210E+02
DAV:  13    -0.566183979844E+03    0.50963E+02   -0.90139E+01 22640   0.148E+01    0.872E+01
DAV:  14    -0.537412358341E+03    0.28772E+02   -0.41556E+01 22512   0.109E+01    0.660E+01
DAV:  15    -0.530886047060E+03    0.65263E+01   -0.34457E+01 22880   0.814E+00    0.481E+01
DAV:  16    -0.538211619967E+03   -0.73256E+01   -0.89051E+00 21312   0.370E+00    0.449E+01
DAV:  17    -0.552765177849E+03   -0.14554E+02   -0.24525E+00 20480   0.249E+00    0.416E+01
DAV:  18    -0.598732056287E+03   -0.45967E+02   -0.20350E+01 21072   0.597E+00    0.338E+01
DAV:  19    -0.631907454523E+03   -0.33175E+02   -0.17727E+01 22384   0.694E+00    0.292E+01
DAV:  20    -0.657445899376E+03   -0.25538E+02   -0.89495E+00 21744   0.452E+00    0.319E+01
DAV:  21    -0.667870941165E+03   -0.10425E+02   -0.37819E+00 21152   0.326E+00    0.294E+01
DAV:  22    -0.673923407753E+03   -0.60525E+01   -0.24295E+00 21408   0.246E+00    0.272E+01
DAV:  23    -0.678577987453E+03   -0.46546E+01   -0.13187E+00 20992   0.183E+00    0.271E+01
DAV:  24    -0.681558139731E+03   -0.29802E+01   -0.11106E+00 22160   0.187E+00    0.242E+01
DAV:  25    -0.686845223147E+03   -0.52871E+01   -0.10640E+00 20496   0.124E+00    0.238E+01
DAV:  26    -0.686204679965E+03    0.64054E+00   -0.27216E-01 20768   0.919E-01    0.225E+01
DAV:  27    -0.698175210545E+03   -0.11971E+02   -0.33223E+00 19632   0.232E+00    0.204E+01
DAV:  28    -0.716592547673E+03   -0.18417E+02   -0.62166E+00 20704   0.288E+00    0.177E+01
DAV:  29    -0.739097220445E+03   -0.22505E+02   -0.10812E+01 21280   0.385E+00    0.184E+01
DAV:  30    -0.758349071767E+03   -0.19252E+02   -0.10481E+01 21360   0.346E+00    0.166E+01
DAV:  31    -0.772486167849E+03   -0.14137E+02   -0.15350E+01 21936   0.402E+00    0.164E+01
DAV:  32    -0.777617843952E+03   -0.51317E+01   -0.38379E+00 21520   0.278E+00    0.165E+01
DAV:  33    -0.783918204271E+03   -0.63004E+01   -0.17748E+00 21712   0.215E+00    0.122E+01
DAV:  34    -0.789303516356E+03   -0.53853E+01   -0.14266E+00 20256   0.161E+00    0.906E+00
DAV:  35    -0.791865417082E+03   -0.25619E+01   -0.40107E-01 21968   0.927E-01    0.826E+00
DAV:  36    -0.796096746993E+03   -0.42313E+01   -0.16347E+00 20288   0.151E+00    0.675E+00
DAV:  37    -0.797047069038E+03   -0.95032E+00   -0.49752E-01 20304   0.867E-01    0.585E+00
DAV:  38    -0.797735804394E+03   -0.68874E+00   -0.10999E-01 22912   0.493E-01    0.499E+00
DAV:  39    -0.799446525775E+03   -0.17107E+01   -0.12522E-01 20880   0.616E-01    0.402E+00
DAV:  40    -0.801989056432E+03   -0.25425E+01   -0.11460E-01 20144   0.499E-01    0.401E+00
DAV:  41    -0.804472042653E+03   -0.24830E+01   -0.12200E-01 18992   0.439E-01    0.360E+00
DAV:  42    -0.806195839329E+03   -0.17238E+01   -0.94460E-02 20224   0.351E-01    0.299E+00
DAV:  43    -0.806501138298E+03   -0.30530E+00   -0.22436E-02 21088   0.222E-01    0.215E+00
DAV:  44    -0.806665290703E+03   -0.16415E+00   -0.12805E-02 19904   0.154E-01    0.145E+00
DAV:  45    -0.806801002205E+03   -0.13571E+00   -0.94801E-03 21600   0.169E-01    0.733E-01
DAV:  46    -0.806917549553E+03   -0.11655E+00   -0.48021E-03 20112   0.956E-02    0.332E-01
DAV:  47    -0.806988654105E+03   -0.71105E-01   -0.13312E-03 20192   0.504E-02    0.200E-01
DAV:  48    -0.807067068916E+03   -0.78415E-01   -0.97252E-04 17632   0.464E-02    0.115E-01
DAV:  49    -0.807118350245E+03   -0.51281E-01   -0.64092E-04 16672   0.344E-02    0.978E-02
DAV:  50    -0.807143420873E+03   -0.25071E-01   -0.54450E-04 16496   0.302E-02    0.114E-01
DAV:  51    -0.807150784408E+03   -0.73635E-02   -0.37752E-04 15136   0.241E-02    0.113E-01
DAV:  52    -0.807151869992E+03   -0.10856E-02   -0.94936E-05 13296   0.157E-02    0.103E-01
DAV:  53    -0.807151827962E+03    0.42030E-04   -0.25096E-05 11328   0.993E-03
   1 F= -.80715183E+03 E0= -.80711490E+03  d E =-.807152E+03  mag=     7.2038
       N       E                     dE             d eps       ncg     rms          rms(c)
DAV:   1    -0.739354433716E+03    0.67797E+02   -0.56133E+03 17504   0.116E+02    0.195E+02
DAV:   2    -0.854954931247E+03   -0.11560E+03   -0.82280E+02 20528   0.350E+01    0.215E+02
DAV:   3    -0.806390339724E+03    0.48565E+02   -0.13371E+02 23312   0.222E+01    0.739E+01
DAV:   4    -0.825734237620E+03   -0.19344E+02   -0.59283E+01 23776   0.163E+01    0.101E+02
DAV:   5    -0.797055734859E+03    0.28679E+02   -0.34155E+01 23792   0.106E+01    0.438E+01
DAV:   6    -0.808143453085E+03   -0.11088E+02   -0.39671E+01 24416   0.910E+00    0.544E+01
DAV:   7    -0.799351998315E+03    0.87915E+01   -0.63555E+00 23536   0.670E+00    0.339E+01
DAV:   8    -0.799758497706E+03   -0.40650E+00   -0.28770E+00 21120   0.236E+00    0.212E+01
DAV:   9    -0.801091646558E+03   -0.13331E+01   -0.11003E+00 22224   0.183E+00    0.202E+01
DAV:  10    -0.802716153796E+03   -0.16245E+01   -0.14705E+00 22528   0.190E+00    0.215E+01
DAV:  11    -0.803202156012E+03   -0.48600E+00   -0.95491E-01 21904   0.157E+00    0.171E+01
DAV:  12    -0.802933480884E+03    0.26868E+00   -0.48485E-01 22160   0.140E+00    0.135E+01
DAV:  13    -0.803332754924E+03   -0.39927E+00   -0.27256E-01 22240   0.972E-01    0.838E+00
DAV:  14    -0.803601168678E+03   -0.26841E+00   -0.13718E-01 21248   0.584E-01    0.547E+00
DAV:  15    -0.803818646769E+03   -0.21748E+00   -0.84147E-02 21440   0.494E-01    0.299E+00
DAV:  16    -0.804011734271E+03   -0.19309E+00   -0.39867E-02 21952   0.389E-01    0.194E+00
DAV:  17    -0.804062916140E+03   -0.51182E-01   -0.18166E-02 19776   0.222E-01    0.109E+00
DAV:  18    -0.804036741206E+03    0.26175E-01   -0.16914E-02 20032   0.141E-01    0.675E-01
DAV:  19    -0.804033051849E+03    0.36894E-02   -0.28707E-03 23152   0.909E-02    0.585E-01
DAV:  20    -0.804026216105E+03    0.68357E-02   -0.25002E-03 21520   0.865E-02    0.360E-01
DAV:  21    -0.804025448096E+03    0.76801E-03   -0.65037E-04 18288   0.466E-02    0.287E-01
DAV:  22    -0.804033399856E+03   -0.79518E-02   -0.72720E-04 16960   0.414E-02    0.265E-01
DAV:  23    -0.804035043266E+03   -0.16434E-02   -0.36403E-04 17312   0.358E-02    0.197E-01
DAV:  24    -0.804066548355E+03   -0.31505E-01   -0.20645E-03 17520   0.575E-02    0.202E-01
DAV:  25    -0.804097751618E+03   -0.31203E-01   -0.11238E-03 17760   0.433E-02    0.153E-01
DAV:  26    -0.804128441648E+03   -0.30690E-01   -0.90741E-04 17280   0.402E-02    0.148E-01
DAV:  27    -0.804157724087E+03   -0.29282E-01   -0.27767E-04 17072   0.276E-02    0.130E-01
DAV:  28    -0.804200493989E+03   -0.42770E-01   -0.49558E-04 17456   0.401E-02    0.110E-01
DAV:  29    -0.804220943185E+03   -0.20449E-01   -0.13848E-04 14224   0.229E-02    0.127E-01
DAV:  30    -0.804242769455E+03   -0.21826E-01   -0.12008E-04 14000   0.226E-02    0.128E-01
DAV:  31    -0.804272753069E+03   -0.29984E-01   -0.32377E-04 16800   0.353E-02    0.951E-02
DAV:  32    -0.804288925023E+03   -0.16172E-01   -0.91729E-05 12880   0.211E-02    0.664E-02
DAV:  33    -0.804306516223E+03   -0.17591E-01   -0.10187E-04 12704   0.224E-02    0.538E-02
DAV:  34    -0.804334009515E+03   -0.27493E-01   -0.22107E-04 14512   0.309E-02    0.547E-02
DAV:  35    -0.804352208227E+03   -0.18199E-01   -0.91997E-05 12176   0.203E-02    0.504E-02
DAV:  36    -0.804370463608E+03   -0.18255E-01   -0.92086E-05 12480   0.205E-02    0.576E-02
DAV:  37    -0.804385458375E+03   -0.14995E-01   -0.74294E-05 12848   0.186E-02    0.355E-02
DAV:  38    -0.804394595433E+03   -0.91371E-02   -0.40480E-05 12256   0.131E-02    0.232E-02
DAV:  39    -0.804398003048E+03   -0.34076E-02   -0.13225E-05 11568   0.894E-03    0.187E-02
DAV:  40    -0.804399642521E+03   -0.16395E-02   -0.85398E-06 11248   0.677E-03    0.154E-02
DAV:  41    -0.804399881639E+03   -0.23912E-03   -0.24328E-06 11424   0.416E-03    0.113E-02
DAV:  42    -0.804399811339E+03    0.70300E-04   -0.18593E-06 10992   0.296E-03
   2 F= -.80439981E+03 E0= -.80435969E+03  d E =0.275202E+01  mag=     6.2521
       N       E                     dE             d eps       ncg     rms          rms(c)
DAV:   1    -0.799234627620E+03    0.51653E+01   -0.13457E+03 17360   0.559E+01    0.509E+01
DAV:   2    -0.813926949056E+03   -0.14692E+02   -0.14768E+02 19808   0.147E+01    0.605E+01
DAV:   3    -0.812961785887E+03    0.96516E+00   -0.20709E+01 22096   0.816E+00    0.371E+01
DAV:   4    -0.825086296854E+03   -0.12125E+02   -0.57636E+01 25664   0.118E+01    0.630E+01
DAV:   5    -0.819092315270E+03    0.59940E+01   -0.32656E+01 23520   0.737E+00    0.561E+01
DAV:   6    -0.806603189511E+03    0.12489E+02   -0.17005E+01 23408   0.616E+00    0.359E+01
DAV:   7    -0.804752274140E+03    0.18509E+01   -0.53515E+00 23648   0.411E+00    0.276E+01
DAV:   8    -0.803617972465E+03    0.11343E+01   -0.64462E+00 23568   0.323E+00    0.167E+01
DAV:   9    -0.803907279610E+03   -0.28931E+00   -0.40583E-01 18880   0.105E+00    0.153E+01
DAV:  10    -0.803827574950E+03    0.79705E-01   -0.23771E-02 22192   0.225E-01    0.151E+01
DAV:  11    -0.803334396841E+03    0.49318E+00   -0.20640E-01 21632   0.574E-01    0.131E+01
DAV:  12    -0.803258870421E+03    0.75526E-01   -0.51170E-02 20656   0.273E-01    0.123E+01
DAV:  13    -0.803008217326E+03    0.25065E+00   -0.14679E-01 21584   0.574E-01    0.110E+01
DAV:  14    -0.802760092931E+03    0.24812E+00   -0.16463E-01 21472   0.594E-01    0.924E+00
DAV:  15    -0.802695396431E+03    0.64697E-01   -0.14658E-01 21792   0.682E-01    0.660E+00
DAV:  16    -0.803044305884E+03   -0.34891E+00   -0.62998E-02 20432   0.480E-01    0.496E+00
DAV:  17    -0.803869815720E+03   -0.82551E+00   -0.11215E-01 20480   0.455E-01    0.482E+00
DAV:  18    -0.804666030870E+03   -0.79622E+00   -0.14591E-01 19440   0.421E-01    0.412E+00
DAV:  19    -0.805388351099E+03   -0.72232E+00   -0.13135E-01 19296   0.433E-01    0.267E+00
DAV:  20    -0.806232181887E+03   -0.84383E+00   -0.84522E-02 20592   0.347E-01    0.260E+00
DAV:  21    -0.807048058655E+03   -0.81588E+00   -0.94110E-02 20848   0.320E-01    0.252E+00
DAV:  22    -0.807461644462E+03   -0.41359E+00   -0.33849E-02 20896   0.276E-01    0.206E+00
DAV:  23    -0.808029550818E+03   -0.56791E+00   -0.18870E-02 18608   0.182E-01    0.209E+00
DAV:  24    -0.808785649600E+03   -0.75610E+00   -0.39976E-02 19104   0.201E-01    0.189E+00
DAV:  25    -0.809368599468E+03   -0.58295E+00   -0.35752E-02 20272   0.280E-01    0.200E+00
DAV:  26    -0.809485728385E+03   -0.11713E+00   -0.68311E-03 21408   0.143E-01    0.181E+00
DAV:  27    -0.809998230769E+03   -0.51250E+00   -0.21515E-02 20608   0.255E-01    0.167E+00
DAV:  28    -0.810122001754E+03   -0.12377E+00   -0.30757E-02 20304   0.225E-01    0.149E+00
DAV:  29    -0.810102250886E+03    0.19751E-01   -0.57794E-03 22544   0.129E-01    0.112E+00
DAV:  30    -0.810114709781E+03   -0.12459E-01   -0.39643E-03 21232   0.984E-02    0.882E-01
DAV:  31    -0.810155598799E+03   -0.40889E-01   -0.81160E-03 21520   0.133E-01    0.680E-01
DAV:  32    -0.810202891757E+03   -0.47293E-01   -0.74617E-03 21376   0.135E-01    0.583E-01
DAV:  33    -0.810283241363E+03   -0.80350E-01   -0.46516E-03 21040   0.109E-01    0.671E-01
DAV:  34    -0.810428193977E+03   -0.14495E+00   -0.39308E-03 19600   0.105E-01    0.487E-01
DAV:  35    -0.810539014707E+03   -0.11082E+00   -0.19374E-03 19088   0.856E-02    0.348E-01
DAV:  36    -0.810639617792E+03   -0.10060E+00   -0.21082E-03 19136   0.733E-02    0.379E-01
DAV:  37    -0.810704626819E+03   -0.65009E-01   -0.12669E-03 20096   0.635E-02    0.192E-01
DAV:  38    -0.810732497835E+03   -0.27871E-01   -0.91865E-04 18800   0.570E-02    0.180E-01
DAV:  39    -0.810741435409E+03   -0.89376E-02   -0.26635E-04 16016   0.339E-02    0.921E-02
DAV:  40    -0.810743939699E+03   -0.25043E-02   -0.54634E-05 12016   0.136E-02    0.797E-02
DAV:  41    -0.810753150086E+03   -0.92104E-02   -0.48327E-05 11840   0.155E-02    0.700E-02
DAV:  42    -0.810761573592E+03   -0.84235E-02   -0.57454E-05 12464   0.139E-02    0.672E-02
DAV:  43    -0.810776161687E+03   -0.14588E-01   -0.11965E-04 13696   0.222E-02    0.729E-02
DAV:  44    -0.810798802396E+03   -0.22641E-01   -0.14230E-04 13152   0.242E-02    0.686E-02
DAV:  45    -0.810852980880E+03   -0.54178E-01   -0.69652E-04 15472   0.501E-02    0.871E-02
DAV:  46    -0.810890004997E+03   -0.37024E-01   -0.21163E-04 12896   0.319E-02    0.455E-02
DAV:  47    -0.810899157413E+03   -0.91524E-02   -0.45705E-05 12032   0.168E-02    0.326E-02
DAV:  48    -0.810904993534E+03   -0.58361E-02   -0.31723E-05 11056   0.144E-02    0.186E-02
DAV:  49    -0.810905912449E+03   -0.91892E-03   -0.82540E-06 11152   0.825E-03    0.120E-02
DAV:  50    -0.810906726396E+03   -0.81395E-03   -0.50072E-06 11344   0.504E-03    0.788E-03
DAV:  51    -0.810907261412E+03   -0.53502E-03   -0.31103E-06 11408   0.363E-03    0.537E-03
DAV:  52    -0.810907450151E+03   -0.18874E-03   -0.19018E-06 11120   0.281E-03    0.406E-03
DAV:  53    -0.810907582287E+03   -0.13214E-03   -0.12822E-06 10848   0.233E-03    0.406E-03
DAV:  54    -0.810907719636E+03   -0.13735E-03   -0.20466E-06 10784   0.247E-03    0.399E-03
DAV:  55    -0.810907783745E+03   -0.64109E-04   -0.13568E-06 10688   0.224E-03
   3 F= -.81090778E+03 E0= -.81087101E+03  d E =-.375596E+01  mag=    -5.9837
       N       E                     dE             d eps       ncg     rms          rms(c)
DAV:   1    -0.810648262982E+03    0.25946E+00   -0.92525E+01 17376   0.178E+01    0.807E+00
DAV:   2    -0.811028447016E+03   -0.38018E+00   -0.43740E+00 20480   0.312E+00    0.685E+00
DAV:   3    -0.811105630543E+03   -0.77184E-01   -0.11360E+00 22816   0.157E+00    0.613E+00
DAV:   4    -0.811074079415E+03    0.31551E-01   -0.13649E+00 24304   0.148E+00    0.531E+00
DAV:   5    -0.810964342801E+03    0.10974E+00   -0.48820E-01 23248   0.930E-01    0.235E+00
DAV:   6    -0.810985190515E+03   -0.20848E-01   -0.13034E-01 22848   0.553E-01    0.210E+00
DAV:   7    -0.810969401176E+03    0.15789E-01   -0.82144E-02 23216   0.458E-01    0.956E-01
DAV:   8    -0.810969590208E+03   -0.18903E-03   -0.15846E-02 23168   0.243E-01    0.413E-01
DAV:   9    -0.810970406389E+03   -0.81618E-03   -0.27549E-03 21664   0.126E-01    0.262E-01
DAV:  10    -0.810970433700E+03   -0.27311E-04   -0.97685E-04 17280   0.636E-02
   4 F= -.81097043E+03 E0= -.81093370E+03  d E =-.626500E-01  mag=    -5.9664
       N       E                     dE             d eps       ncg     rms          rms(c)
DAV:   1    -0.810951985260E+03    0.18421E-01   -0.11259E+01 17344   0.621E+00    0.278E+00
DAV:   2    -0.811003684528E+03   -0.51699E-01   -0.52868E-01 20112   0.108E+00    0.249E+00
DAV:   3    -0.811009304664E+03   -0.56201E-02   -0.10644E-01 22384   0.544E-01    0.209E+00
DAV:   4    -0.811011767564E+03   -0.24629E-02   -0.15293E-01 23712   0.511E-01    0.200E+00
DAV:   5    -0.810996194671E+03    0.15573E-01   -0.60601E-02 22928   0.358E-01    0.831E-01
DAV:   6    -0.810999517121E+03   -0.33225E-02   -0.21328E-02 22688   0.219E-01    0.878E-01
DAV:   7    -0.810996180878E+03    0.33362E-02   -0.14275E-02 22496   0.171E-01    0.253E-01
DAV:   8    -0.810995920612E+03    0.26027E-03   -0.10312E-03 18992   0.677E-02    0.103E-01
DAV:   9    -0.810995634184E+03    0.28643E-03   -0.16349E-04 12688   0.361E-02    0.852E-02
DAV:  10    -0.810995189848E+03    0.44434E-03   -0.80749E-05 11696   0.232E-02    0.411E-02
DAV:  11    -0.810994745714E+03    0.44413E-03   -0.27595E-05 11600   0.102E-02    0.361E-02
DAV:  12    -0.810994364512E+03    0.38120E-03   -0.90190E-06 11344   0.678E-03    0.300E-02
DAV:  13    -0.810993970879E+03    0.39363E-03   -0.51024E-06 11296   0.486E-03    0.263E-02
DAV:  14    -0.810993448984E+03    0.52190E-03   -0.64710E-06 11008   0.482E-03    0.254E-02
DAV:  15    -0.810993249717E+03    0.19927E-03   -0.26806E-06 11168   0.351E-03    0.245E-02
DAV:  16    -0.810993248364E+03    0.13530E-05   -0.16828E-06 11008   0.271E-03
   5 F= -.81099325E+03 E0= -.81095679E+03  d E =-.854646E-01  mag=    -5.9180
       N       E                     dE             d eps       ncg     rms          rms(c)
DAV:   1    -0.810785922648E+03    0.20733E+00   -0.40599E+01 17344   0.116E+01    0.412E+00
DAV:   2    -0.811031805931E+03   -0.24588E+00   -0.26629E+00 20880   0.235E+00    0.346E+00
DAV:   3    -0.811017867852E+03    0.13938E-01   -0.99501E-02 21856   0.857E-01    0.200E+00
DAV:   4    -0.811019329666E+03   -0.14618E-02   -0.37641E-02 22208   0.460E-01    0.206E+00
DAV:   5    -0.811036695765E+03   -0.17366E-01   -0.13130E-01 24368   0.534E-01    0.248E+00
DAV:   6    -0.811008069754E+03    0.28626E-01   -0.81173E-02 23168   0.432E-01    0.609E-01
DAV:   7    -0.811009062502E+03   -0.99275E-03   -0.95130E-03 22912   0.189E-01    0.311E-01
DAV:   8    -0.811009428851E+03   -0.36635E-03   -0.15667E-03 18016   0.697E-02    0.137E-01
DAV:   9    -0.811009696047E+03   -0.26720E-03   -0.21457E-04 12032   0.287E-02    0.100E-01
DAV:  10    -0.811010096510E+03   -0.40046E-03   -0.15791E-04 11536   0.248E-02    0.913E-02
DAV:  11    -0.811010648598E+03   -0.55209E-03   -0.14617E-04 11936   0.233E-02    0.601E-02
DAV:  12    -0.811010842128E+03   -0.19353E-03   -0.60405E-05 11488   0.171E-02    0.402E-02
DAV:  13    -0.811010841121E+03    0.10070E-05   -0.15847E-05 11104   0.914E-03
   6 F= -.81101084E+03 E0= -.81097432E+03  d E =-.175928E-01  mag=    -5.8846
       N       E                     dE             d eps       ncg     rms          rms(c)
DAV:   1    -0.810989778101E+03    0.21064E-01   -0.59598E+00 17376   0.444E+00    0.152E+00
DAV:   2    -0.811026035502E+03   -0.36257E-01   -0.38552E-01 20336   0.888E-01    0.129E+00
DAV:   3    -0.811022450109E+03    0.35854E-02   -0.13922E-02 21616   0.328E-01    0.710E-01
DAV:   4    -0.811023260285E+03   -0.81018E-03   -0.49820E-03 21488   0.159E-01    0.736E-01
DAV:   5    -0.811026700717E+03   -0.34404E-02   -0.16722E-02 23392   0.190E-01    0.890E-01
DAV:   6    -0.811023533527E+03    0.31672E-02   -0.10687E-02 22432   0.157E-01    0.242E-01
DAV:   7    -0.811023695760E+03   -0.16223E-03   -0.13533E-03 18704   0.748E-02    0.130E-01
DAV:   8    -0.811023775736E+03   -0.79976E-04   -0.36766E-04 12032   0.336E-02
   7 F= -.81102378E+03 E0= -.81098732E+03  d E =-.305274E-01  mag=    -5.8712
       N       E                     dE             d eps       ncg     rms          rms(c)
DAV:   1    -0.811000400843E+03    0.23295E-01   -0.10458E+01 17360   0.595E+00    0.236E+00
DAV:   2    -0.811032998242E+03   -0.32597E-01   -0.42560E-01 19168   0.981E-01    0.178E+00
DAV:   3    -0.811045510635E+03   -0.12512E-01   -0.10189E-01 22032   0.545E-01    0.180E+00
DAV:   4    -0.811039461501E+03    0.60491E-02   -0.14377E-01 23952   0.487E-01    0.169E+00
DAV:   5    -0.811025678804E+03    0.13783E-01   -0.31309E-02 23072   0.274E-01    0.582E-01
DAV:   6    -0.811024259923E+03    0.14189E-02   -0.75047E-03 22336   0.157E-01    0.537E-01
DAV:   7    -0.811023109512E+03    0.11504E-02   -0.41673E-03 21680   0.119E-01    0.187E-01
DAV:   8    -0.811023205433E+03   -0.95921E-04   -0.11421E-03 16208   0.582E-02    0.171E-01
DAV:   9    -0.811023102152E+03    0.10328E-03   -0.39711E-04 11632   0.395E-02    0.664E-02
DAV:  10    -0.811023085344E+03    0.16808E-04   -0.70316E-05 10960   0.212E-02
   8 F= -.81102309E+03 E0= -.81098654E+03  d E =0.690392E-03  mag=    -5.8439
       N       E                     dE             d eps       ncg     rms          rms(c)
DAV:   1    -0.811022970845E+03    0.13131E-03   -0.55814E-02 18272   0.438E-01    0.172E-01
DAV:   2    -0.811023814384E+03   -0.84354E-03   -0.24877E-03 19120   0.778E-02    0.177E-01
DAV:   3    -0.811024005412E+03   -0.19103E-03   -0.75016E-04 12608   0.444E-02    0.129E-01
DAV:   4    -0.811024279236E+03   -0.27382E-03   -0.66854E-04 10656   0.391E-02    0.126E-01
DAV:   5    -0.811024708075E+03   -0.42884E-03   -0.17127E-04 11296   0.234E-02    0.555E-02
DAV:   6    -0.811025350828E+03   -0.64275E-03   -0.69231E-05 11040   0.150E-02    0.579E-02
DAV:   7    -0.811025653605E+03   -0.30278E-03   -0.32223E-05 11552   0.126E-02    0.352E-02
DAV:   8    -0.811025952742E+03   -0.29914E-03   -0.69522E-06 10864   0.519E-03    0.334E-02
DAV:   9    -0.811026644947E+03   -0.69220E-03   -0.36622E-06 11024   0.415E-03    0.308E-02
DAV:  10    -0.811027721584E+03   -0.10766E-02   -0.45315E-06 11232   0.392E-03    0.302E-02
DAV:  11    -0.811028636130E+03   -0.91455E-03   -0.38178E-06 11360   0.377E-03    0.287E-02
DAV:  12    -0.811030718402E+03   -0.20823E-02   -0.10442E-05 11696   0.476E-03    0.276E-02
DAV:  13    -0.811034841343E+03   -0.41229E-02   -0.48607E-05 13008   0.876E-03    0.235E-02
DAV:  14    -0.811037886611E+03   -0.30453E-02   -0.79497E-05 14192   0.111E-02    0.185E-02
DAV:  15    -0.811038387508E+03   -0.50090E-03   -0.11153E-05 12192   0.625E-03    0.168E-02
DAV:  16    -0.811038819417E+03   -0.43191E-03   -0.11497E-05 12192   0.458E-03    0.153E-02
DAV:  17    -0.811039056589E+03   -0.23717E-03   -0.77077E-06 11568   0.522E-03    0.132E-02
DAV:  18    -0.811038871375E+03    0.18521E-03   -0.66346E-06 11200   0.518E-03    0.112E-02
DAV:  19    -0.811038636302E+03    0.23507E-03   -0.38658E-06 11136   0.451E-03    0.902E-03
DAV:  20    -0.811038495899E+03    0.14040E-03   -0.28204E-06 11008   0.323E-03    0.713E-03
DAV:  21    -0.811038603378E+03   -0.10748E-03   -0.25849E-06 11072   0.280E-03    0.551E-03
DAV:  22    -0.811038899816E+03   -0.29644E-03   -0.10279E-06 11264   0.191E-03    0.483E-03
DAV:  23    -0.811039475947E+03   -0.57613E-03   -0.11218E-06 11040   0.174E-03    0.359E-03
DAV:  24    -0.811040012592E+03   -0.53665E-03   -0.11908E-06 11296   0.185E-03    0.357E-03
DAV:  25    -0.811040148736E+03   -0.13614E-03   -0.63416E-07 11264   0.148E-03    0.260E-03
DAV:  26    -0.811040202335E+03   -0.53600E-04   -0.38084E-07 11344   0.105E-03
   9 F= -.81104020E+03 E0= -.81100381E+03  d E =-.164266E-01  mag=    -5.6465
       N       E                     dE             d eps       ncg     rms          rms(c)
DAV:   1    -0.811030770191E+03    0.93785E-02   -0.33047E+00 17552   0.359E+00    0.111E+00
DAV:   2    -0.811046843723E+03   -0.16074E-01   -0.17559E-01 18928   0.646E-01    0.885E-01
DAV:   3    -0.811049234695E+03   -0.23910E-02   -0.29478E-02 23200   0.308E-01    0.961E-01
DAV:   4    -0.811045440371E+03    0.37943E-02   -0.18729E-02 22960   0.200E-01    0.466E-01
DAV:   5    -0.811045524628E+03   -0.84256E-04   -0.40753E-03 20480   0.112E-01    0.405E-01
DAV:   6    -0.811045727708E+03   -0.20308E-03   -0.47560E-03 20832   0.107E-01    0.340E-01
DAV:   7    -0.811045194945E+03    0.53276E-03   -0.19184E-03 15456   0.712E-02    0.800E-02
DAV:   8    -0.811045218105E+03   -0.23160E-04   -0.16154E-04 11680   0.271E-02
  10 F= -.81104522E+03 E0= -.81100863E+03  d E =-.501577E-02  mag=    -5.6460
       N       E                     dE             d eps       ncg     rms          rms(c)
DAV:   1    -0.811044652961E+03    0.54198E-03   -0.16738E-01 18512   0.812E-01    0.254E-01
DAV:   2    -0.811045437223E+03   -0.78426E-03   -0.87984E-03 19104   0.146E-01    0.181E-01
DAV:   3    -0.811045529502E+03   -0.92279E-04   -0.87676E-04 16928   0.638E-02    0.174E-01
DAV:   4    -0.811045448826E+03    0.80676E-04   -0.81747E-04 13584   0.471E-02    0.127E-01
DAV:   5    -0.811045415155E+03    0.33671E-04   -0.23532E-04 10816   0.255E-02    0.766E-02
DAV:   6    -0.811045433683E+03   -0.18528E-04   -0.16859E-04 11408   0.227E-02
  11 F= -.81104543E+03 E0= -.81100884E+03  d E =-.523135E-02  mag=    -5.6457
       N       E                     dE             d eps       ncg     rms          rms(c)
DAV:   1    -0.811038379403E+03    0.70358E-02   -0.22376E+00 17376   0.282E+00    0.768E-01
DAV:   2    -0.811047609996E+03   -0.92306E-02   -0.10089E-01 18896   0.456E-01    0.781E-01
DAV:   3    -0.811046846716E+03    0.76328E-03   -0.39424E-03 21840   0.156E-01    0.398E-01
DAV:   4    -0.811047661945E+03   -0.81523E-03   -0.39723E-03 21456   0.116E-01    0.571E-01
DAV:   5    -0.811047120703E+03    0.54124E-03   -0.58301E-03 20736   0.115E-01    0.446E-01
DAV:   6    -0.811046849676E+03    0.27103E-03   -0.16613E-03 15760   0.688E-02    0.136E-01
DAV:   7    -0.811046867520E+03   -0.17843E-04   -0.54013E-04 12768   0.438E-02
  12 F= -.81104687E+03 E0= -.81101017E+03  d E =-.143384E-02  mag=    -5.6455
       N       E                     dE             d eps       ncg     rms          rms(c)
DAV:   1    -0.811046777005E+03    0.72671E-04   -0.38251E-02 18192   0.368E-01    0.110E-01
DAV:   2    -0.811047035187E+03   -0.25818E-03   -0.19933E-03 19136   0.672E-02    0.165E-01
DAV:   3    -0.811046966800E+03    0.68387E-04   -0.47417E-04 11792   0.350E-02    0.828E-02
DAV:   4    -0.811046970777E+03   -0.39774E-05   -0.17105E-04 11152   0.225E-02    0.657E-02
DAV:   5    -0.811046979227E+03   -0.84498E-05   -0.60110E-05 11264   0.151E-02    0.499E-02
DAV:   6    -0.811046991197E+03   -0.11970E-04   -0.34660E-05 11056   0.117E-02
  13 F= -.81104699E+03 E0= -.81101015E+03  d E =-.155751E-02  mag=    -5.6452
       N       E                     dE             d eps       ncg     rms          rms(c)
DAV:   1    -0.811045953623E+03    0.10256E-02   -0.14330E+00 17376   0.204E+00    0.506E-01
DAV:   2    -0.811048153106E+03   -0.21995E-02   -0.24861E-02 19808   0.216E-01    0.360E-01
DAV:   3    -0.811048737587E+03   -0.58448E-03   -0.34541E-03 21536   0.963E-02    0.421E-01
DAV:   4    -0.811048209797E+03    0.52779E-03   -0.39967E-03 20608   0.937E-02    0.268E-01
DAV:   5    -0.811047986316E+03    0.22348E-03   -0.16043E-03 13664   0.576E-02    0.166E-01
DAV:   6    -0.811047920827E+03    0.65488E-04   -0.53455E-04 11136   0.389E-02
  14 F= -.81104792E+03 E0= -.81101113E+03  d E =-.929630E-03  mag=    -5.6447
       N       E                     dE             d eps       ncg     rms          rms(c)
DAV:   1    -0.811047505095E+03    0.48122E-03   -0.17365E-01 17968   0.712E-01    0.190E-01
DAV:   2    -0.811047764164E+03   -0.25907E-03   -0.31958E-03 19328   0.801E-02    0.174E-01
DAV:   3    -0.811047808247E+03   -0.44083E-04   -0.97039E-04 14352   0.499E-02    0.187E-01
DAV:   4    -0.811047646457E+03    0.16179E-03   -0.79674E-04 11024   0.443E-02    0.106E-01
DAV:   5    -0.811047609536E+03    0.36921E-04   -0.19626E-04 11104   0.242E-02    0.481E-02
DAV:   6    -0.811047596471E+03    0.13065E-04   -0.30112E-05 10976   0.128E-02
  15 F= -.81104760E+03 E0= -.81101066E+03  d E =-.605274E-03  mag=    -5.6439
       N       E                     dE             d eps       ncg     rms          rms(c)
DAV:   1    -0.811047622847E+03   -0.13311E-04   -0.39813E-02 18208   0.339E-01    0.835E-02
DAV:   2    -0.811047773853E+03   -0.15101E-03   -0.70002E-04 18720   0.370E-02    0.674E-02
DAV:   3    -0.811047840601E+03   -0.66748E-04   -0.17893E-04 11376   0.218E-02    0.782E-02
DAV:   4    -0.811047873490E+03   -0.32890E-04   -0.18056E-04 10928   0.207E-02    0.474E-02
DAV:   5    -0.811047916069E+03   -0.42578E-04   -0.37395E-05 11088   0.108E-02    0.253E-02
DAV:   6    -0.811047971639E+03   -0.55570E-04   -0.11128E-05 10976   0.686E-03
  16 F= -.81104797E+03 E0= -.81101107E+03  d E =-.980442E-03  mag=    -5.6432
       N       E                     dE             d eps       ncg     rms          rms(c)
DAV:   1    -0.811043770630E+03    0.41454E-02   -0.13992E+00 17392   0.218E+00    0.490E-01
DAV:   2    -0.811049582321E+03   -0.58117E-02   -0.63224E-02 18224   0.358E-01    0.510E-01
DAV:   3    -0.811049803061E+03   -0.22074E-03   -0.10833E-02 21664   0.157E-01    0.504E-01
DAV:   4    -0.811048751418E+03    0.10516E-02   -0.38187E-03 17392   0.872E-02    0.183E-01
DAV:   5    -0.811048996809E+03   -0.24539E-03   -0.46007E-04 15712   0.474E-02    0.165E-01
DAV:   6    -0.811049218096E+03   -0.22129E-03   -0.82066E-04 11296   0.496E-02    0.159E-01
DAV:   7    -0.811049214045E+03    0.40517E-05   -0.39102E-04 11824   0.381E-02
  17 F= -.81104921E+03 E0= -.81101224E+03  d E =-.124241E-02  mag=    -5.6435
       N       E                     dE             d eps       ncg     rms          rms(c)
DAV:   1    -0.811048251668E+03    0.96643E-03   -0.24500E-01 17920   0.916E-01    0.209E-01
DAV:   2    -0.811049238396E+03   -0.98673E-03   -0.11074E-02 18720   0.150E-01    0.203E-01
DAV:   3    -0.811049340118E+03   -0.10172E-03   -0.17826E-03 18048   0.649E-02    0.214E-01
DAV:   4    -0.811049159524E+03    0.18059E-03   -0.73524E-04 12064   0.389E-02    0.782E-02
DAV:   5    -0.811049222037E+03   -0.62513E-04   -0.75371E-05 11680   0.196E-02    0.634E-02
DAV:   6    -0.811049271586E+03   -0.49549E-04   -0.16532E-04 11376   0.227E-02
  18 F= -.81104927E+03 E0= -.81101233E+03  d E =-.129995E-02  mag=    -5.6444
       N       E                     dE             d eps       ncg     rms          rms(c)
DAV:   1    -0.811049118631E+03    0.10341E-03   -0.54896E-02 18576   0.432E-01    0.980E-02
DAV:   2    -0.811049336909E+03   -0.21828E-03   -0.25516E-03 18832   0.726E-02    0.115E-01
DAV:   3    -0.811049325907E+03    0.11002E-04   -0.46699E-04 13248   0.331E-02    0.959E-02
DAV:   4    -0.811049294959E+03    0.30948E-04   -0.14496E-04 10896   0.186E-02    0.352E-02
DAV:   5    -0.811049301442E+03   -0.64830E-05   -0.20549E-05 11072   0.982E-03    0.330E-02
DAV:   6    -0.811049303668E+03   -0.22255E-05   -0.34075E-05 10912   0.104E-02
  19 F= -.81104930E+03 E0= -.81101228E+03  d E =-.133203E-02  mag=    -5.6454
       N       E                     dE             d eps       ncg     rms          rms(c)
DAV:   1    -0.811049182471E+03    0.11897E-03   -0.38410E-02 18496   0.361E-01    0.813E-02
DAV:   2    -0.811049343328E+03   -0.16086E-03   -0.17553E-03 18480   0.601E-02    0.928E-02
DAV:   3    -0.811049346048E+03   -0.27200E-05   -0.29578E-04 11456   0.270E-02    0.755E-02
DAV:   4    -0.811049336872E+03    0.91767E-05   -0.11738E-04 10944   0.171E-02    0.354E-02
DAV:   5    -0.811049349424E+03   -0.12553E-04   -0.16208E-05 11104   0.877E-03    0.285E-02
DAV:   6    -0.811049369333E+03   -0.19909E-04   -0.22512E-05 10896   0.899E-03
  20 F= -.81104937E+03 E0= -.81101237E+03  d E =-.139769E-02  mag=    -5.6460
