       N       E                     dE             d eps       ncg     rms          rms(c)
DAV:   1     0.131830068862E+05    0.13183E+05   -0.59151E+05 20320   0.128E+03
DAV:   2     0.231904031553E+03   -0.12951E+05   -0.12353E+05 24000   0.530E+02
DAV:   3    -0.949681996269E+03   -0.11816E+04   -0.11581E+04 21520   0.146E+02
DAV:   4    -0.987138394635E+03   -0.37456E+02   -0.36782E+02 24240   0.333E+01
DAV:   5    -0.988144872937E+03   -0.10065E+01   -0.10040E+01 22480   0.507E+00
DAV:   6    -0.988180421658E+03   -0.35549E-01   -0.35537E-01 23680   0.993E-01
DAV:   7    -0.988181790332E+03   -0.13687E-02   -0.13684E-02 22640   0.173E-01
DAV:   8    -0.988181853253E+03   -0.62921E-04   -0.62913E-04 21440   0.381E-02    0.340E+02
DAV:   9    -0.642587172790E+03    0.34559E+03   -0.13339E+03 22960   0.585E+01    0.265E+02
DAV:  10    -0.641199332239E+03    0.13878E+01   -0.62036E+02 22320   0.364E+01    0.157E+02
DAV:  11    -0.613326746188E+03    0.27873E+02   -0.82534E+02 24480   0.264E+01    0.154E+02
DAV:  12    -0.540125197432E+03    0.73202E+02   -0.30859E+02 21280   0.186E+01    0.535E+01
DAV:  13    -0.560242296944E+03   -0.20117E+02   -0.75871E+01 19920   0.879E+00    0.422E+01
DAV:  14    -0.563749636929E+03   -0.35073E+01   -0.54605E+01 19440   0.623E+00    0.325E+01
DAV:  15    -0.576479503459E+03   -0.12730E+02   -0.21673E+01 19920   0.427E+00    0.341E+01
DAV:  16    -0.571925254988E+03    0.45542E+01   -0.89881E+00 19280   0.295E+00    0.265E+01
DAV:  17    -0.597278946748E+03   -0.25354E+02   -0.98881E+00 19600   0.339E+00    0.215E+01
DAV:  18    -0.607827857402E+03   -0.10549E+02   -0.53782E+00 20960   0.266E+00    0.199E+01
DAV:  19    -0.612333292256E+03   -0.45054E+01   -0.16058E+00 20320   0.145E+00    0.180E+01
DAV:  20    -0.627635719584E+03   -0.15302E+02   -0.30971E+00 20880   0.209E+00    0.175E+01
DAV:  21    -0.668602860013E+03   -0.40967E+02   -0.26607E+01 20000   0.547E+00    0.219E+01
DAV:  22    -0.698806249055E+03   -0.30203E+02   -0.20856E+01 21360   0.446E+00    0.245E+01
DAV:  23    -0.723483138860E+03   -0.24677E+02   -0.27014E+01 20800   0.454E+00    0.278E+01
DAV:  24    -0.735182758932E+03   -0.11700E+02   -0.75054E+00 21600   0.285E+00    0.244E+01
DAV:  25    -0.740729224334E+03   -0.55465E+01   -0.27156E+00 20320   0.217E+00    0.200E+01
DAV:  26    -0.743612665421E+03   -0.28834E+01   -0.11808E+00 21120   0.127E+00    0.176E+01
DAV:  27    -0.747892895903E+03   -0.42802E+01   -0.10423E+00 20240   0.118E+00    0.134E+01
DAV:  28    -0.751999768600E+03   -0.41069E+01   -0.13730E+00 21120   0.129E+00    0.854E+00
DAV:  29    -0.756303857493E+03   -0.43041E+01   -0.13047E+00 20800   0.120E+00    0.664E+00
DAV:  30    -0.758930459437E+03   -0.26266E+01   -0.13755E+00 19920   0.113E+00    0.710E+00
DAV:  31    -0.760475088819E+03   -0.15446E+01   -0.53504E-01 19840   0.651E-01    0.736E+00
DAV:  32    -0.764057862298E+03   -0.35828E+01   -0.13502E+00 19680   0.938E-01    0.760E+00
DAV:  33    -0.765983134529E+03   -0.19253E+01   -0.28965E-01 22400   0.525E-01    0.685E+00
DAV:  34    -0.766925957470E+03   -0.94282E+00   -0.70786E-02 20240   0.279E-01    0.600E+00
DAV:  35    -0.770518123930E+03   -0.35922E+01   -0.65557E-01 18160   0.627E-01    0.424E+00
DAV:  36    -0.771721866094E+03   -0.12037E+01   -0.26977E-01 19680   0.471E-01    0.290E+00
DAV:  37    -0.772146516326E+03   -0.42465E+00   -0.78452E-02 19680   0.301E-01    0.207E+00
DAV:  38    -0.772383507443E+03   -0.23699E+00   -0.47124E-02 20240   0.227E-01    0.114E+00
DAV:  39    -0.772666747728E+03   -0.28324E+00   -0.18160E-02 19280   0.158E-01    0.491E-01
DAV:  40    -0.772897749611E+03   -0.23100E+00   -0.79103E-03 20480   0.104E-01    0.373E-01
DAV:  41    -0.773041516283E+03   -0.14377E+00   -0.43657E-03 19840   0.661E-02    0.240E-01
DAV:  42    -0.773128610752E+03   -0.87094E-01   -0.18345E-03 19520   0.402E-02    0.183E-01
DAV:  43    -0.773175208554E+03   -0.46598E-01   -0.61346E-04 16640   0.270E-02    0.160E-01
DAV:  44    -0.773217131219E+03   -0.41923E-01   -0.94332E-04 18160   0.298E-02    0.174E-01
DAV:  45    -0.773239747710E+03   -0.22616E-01   -0.72435E-04 17520   0.235E-02    0.134E-01
DAV:  46    -0.773297517292E+03   -0.57770E-01   -0.12377E-03 18560   0.341E-02    0.151E-01
DAV:  47    -0.773352983683E+03   -0.55466E-01   -0.67277E-04 19360   0.327E-02    0.126E-01
DAV:  48    -0.773410246286E+03   -0.57263E-01   -0.45220E-04 18880   0.291E-02    0.128E-01
DAV:  49    -0.773466286393E+03   -0.56040E-01   -0.25461E-04 16960   0.272E-02    0.921E-02
DAV:  50    -0.773538276814E+03   -0.71990E-01   -0.41974E-04 16880   0.367E-02    0.784E-02
DAV:  51    -0.773572974574E+03   -0.34698E-01   -0.27683E-04 15680   0.273E-02    0.494E-02
DAV:  52    -0.773603690959E+03   -0.30716E-01   -0.26186E-04 16640   0.298E-02    0.496E-02
DAV:  53    -0.773617462685E+03   -0.13772E-01   -0.88358E-05 14720   0.181E-02    0.256E-02
DAV:  54    -0.773622397794E+03   -0.49351E-02   -0.39292E-05 13120   0.129E-02    0.211E-02
DAV:  55    -0.773623960099E+03   -0.15623E-02   -0.23328E-05 13120   0.843E-03    0.177E-02
DAV:  56    -0.773625226035E+03   -0.12659E-02   -0.25796E-05 13360   0.774E-03    0.100E-02
DAV:  57    -0.773625806767E+03   -0.58073E-03   -0.10491E-05 12400   0.567E-03    0.124E-02
DAV:  58    -0.773626385470E+03   -0.57870E-03   -0.95158E-06 12160   0.487E-03    0.103E-02
DAV:  59    -0.773626766549E+03   -0.38108E-03   -0.51746E-06 12240   0.391E-03    0.511E-03
DAV:  60    -0.773627017364E+03   -0.25082E-03   -0.30878E-06 12320   0.292E-03    0.408E-03
DAV:  61    -0.773627177183E+03   -0.15982E-03   -0.17521E-06 12160   0.262E-03    0.324E-03
DAV:  62    -0.773627214808E+03   -0.37625E-04   -0.10490E-06 12240   0.172E-03
   1 F= -.77362721E+03 E0= -.77359539E+03  d E =-.773627E+03  mag=    -0.0017
       N       E                     dE             d eps       ncg     rms          rms(c)
DAV:   1    -0.769405301380E+03    0.42219E+01   -0.74565E+02 17600   0.472E+01    0.235E+01
DAV:   2    -0.774517044942E+03   -0.51117E+01   -0.57998E+01 20160   0.102E+01    0.177E+01
DAV:   3    -0.775790314133E+03   -0.12733E+01   -0.41549E+01 22720   0.517E+00    0.206E+01
DAV:   4    -0.774743987431E+03    0.10463E+01   -0.49777E+01 23840   0.436E+00    0.143E+01
DAV:   5    -0.774117504666E+03    0.62648E+00   -0.57087E+00 21200   0.211E+00    0.868E+00
DAV:   6    -0.773946355694E+03    0.17115E+00   -0.20453E+00 20720   0.152E+00    0.335E+00
DAV:   7    -0.773924607074E+03    0.21749E-01   -0.39015E-01 20160   0.705E-01    0.168E+00
DAV:   8    -0.773937413282E+03   -0.12806E-01   -0.24817E-01 23200   0.503E-01    0.189E+00
DAV:   9    -0.773928005511E+03    0.94078E-02   -0.20287E-01 23440   0.433E-01    0.120E+00
DAV:  10    -0.773923713224E+03    0.42923E-02   -0.85189E-02 22480   0.286E-01    0.688E-01
DAV:  11    -0.773922130100E+03    0.15831E-02   -0.17683E-02 23760   0.155E-01    0.316E-01
DAV:  12    -0.773922077329E+03    0.52771E-04   -0.28446E-03 19520   0.685E-02    0.179E-01
DAV:  13    -0.773922117703E+03   -0.40375E-04   -0.65633E-04 18960   0.357E-02
   2 F= -.77392212E+03 E0= -.77389045E+03  d E =-.294903E+00  mag=    -0.0013
       N       E                     dE             d eps       ncg     rms          rms(c)
DAV:   1    -0.773557093397E+03    0.36498E+00   -0.10684E+02 17440   0.183E+01    0.655E+00
DAV:   2    -0.774138861758E+03   -0.58177E+00   -0.67435E+00 21280   0.369E+00    0.587E+00
DAV:   3    -0.774137390084E+03    0.14717E-02   -0.87264E-01 23360   0.109E+00    0.398E+00
DAV:   4    -0.774217322023E+03   -0.79932E-01   -0.20539E+00 24160   0.112E+00    0.567E+00
DAV:   5    -0.774171008202E+03    0.46314E-01   -0.13316E+00 24080   0.958E-01    0.365E+00
DAV:   6    -0.774123639219E+03    0.47369E-01   -0.58341E-01 22080   0.713E-01    0.124E+00
DAV:   7    -0.774122820877E+03    0.81834E-03   -0.10031E-01 23040   0.336E-01    0.747E-01
DAV:   8    -0.774120771285E+03    0.20496E-02   -0.21636E-02 19360   0.134E-01    0.378E-01
DAV:   9    -0.774120638487E+03    0.13280E-03   -0.21790E-03 22080   0.572E-02    0.288E-01
DAV:  10    -0.774120537473E+03    0.10101E-03   -0.14221E-03 18800   0.445E-02    0.140E-01
DAV:  11    -0.774120556852E+03   -0.19379E-04   -0.55773E-04 13920   0.308E-02
   3 F= -.77412056E+03 E0= -.77408847E+03  d E =-.493342E+00  mag=    -0.0011
       N       E                     dE             d eps       ncg     rms          rms(c)
DAV:   1    -0.773851650399E+03    0.26889E+00   -0.11432E+02 18000   0.197E+01    0.577E+00
DAV:   2    -0.774331754546E+03   -0.48010E+00   -0.58839E+00 20160   0.334E+00    0.478E+00
DAV:   3    -0.774359670662E+03   -0.27916E-01   -0.28466E+00 23440   0.142E+00    0.468E+00
DAV:   4    -0.774261849555E+03    0.97821E-01   -0.12863E+00 22880   0.890E-01    0.196E+00
DAV:   5    -0.774303773539E+03   -0.41924E-01   -0.52880E-01 22800   0.682E-01    0.319E+00
DAV:   6    -0.774268943330E+03    0.34830E-01   -0.42447E-01 23200   0.544E-01    0.985E-01
DAV:   7    -0.774266076151E+03    0.28672E-02   -0.59754E-02 23040   0.289E-01    0.440E-01
DAV:   8    -0.774265704078E+03    0.37207E-03   -0.11567E-02 23040   0.123E-01    0.256E-01
DAV:   9    -0.774265532435E+03    0.17164E-03   -0.16959E-03 21760   0.600E-02    0.149E-01
DAV:  10    -0.774265679369E+03   -0.14693E-03   -0.39282E-04 18080   0.304E-02    0.699E-02
DAV:  11    -0.774265848917E+03   -0.16955E-03   -0.18218E-04 13920   0.172E-02    0.448E-02
DAV:  12    -0.774265910852E+03   -0.61935E-04   -0.72708E-05 13040   0.118E-02
   4 F= -.77426591E+03 E0= -.77422979E+03  d E =-.145354E+00  mag=    -0.0009
       N       E                     dE             d eps       ncg     rms          rms(c)
DAV:   1    -0.774263969876E+03    0.18790E-02   -0.81349E-01 20160   0.166E+00    0.452E-01
DAV:   2    -0.774267140561E+03   -0.31707E-02   -0.40687E-02 19440   0.278E-01    0.400E-01
DAV:   3    -0.774267365908E+03   -0.22535E-03   -0.18194E-02 22320   0.118E-01    0.382E-01
DAV:   4    -0.774266748040E+03    0.61787E-03   -0.78557E-03 19040   0.705E-02    0.162E-01
DAV:   5    -0.774267205994E+03   -0.45795E-03   -0.47825E-03 16800   0.622E-02    0.301E-01
DAV:   6    -0.774266921980E+03    0.28401E-03   -0.30430E-03 14080   0.493E-02    0.702E-02
DAV:   7    -0.774266955097E+03   -0.33117E-04   -0.22180E-04 12960   0.212E-02
   5 F= -.77426696E+03 E0= -.77423067E+03  d E =-.146398E+00  mag=    -0.0008
       N       E                     dE             d eps       ncg     rms          rms(c)
DAV:   1    -0.774139253435E+03    0.12767E+00   -0.63543E+01 17280   0.148E+01    0.533E+00
DAV:   2    -0.774365186101E+03   -0.22593E+00   -0.26705E+00 19360   0.228E+00    0.475E+00
DAV:   3    -0.774366975484E+03   -0.17894E-02   -0.14656E+00 23520   0.115E+00    0.354E+00
DAV:   4    -0.774336547079E+03    0.30428E-01   -0.93345E-01 21440   0.835E-01    0.263E+00
DAV:   5    -0.774347677942E+03   -0.11131E-01   -0.75966E-01 24160   0.722E-01    0.295E+00
DAV:   6    -0.774312750984E+03    0.34927E-01   -0.31647E-01 23520   0.469E-01    0.586E-01
DAV:   7    -0.774314637258E+03   -0.18863E-02   -0.24478E-02 20640   0.167E-01    0.478E-01
DAV:   8    -0.774313760605E+03    0.87665E-03   -0.12421E-02 22640   0.105E-01    0.233E-01
DAV:   9    -0.774313697062E+03    0.63544E-04   -0.36771E-03 21200   0.608E-02    0.170E-01
DAV:  10    -0.774313582618E+03    0.11444E-03   -0.89217E-04 14720   0.300E-02    0.821E-02
DAV:  11    -0.774313591145E+03   -0.85269E-05   -0.15069E-04 13200   0.167E-02
   6 F= -.77431359E+03 E0= -.77427763E+03  d E =-.466360E-01  mag=    -0.0006
       N       E                     dE             d eps       ncg     rms          rms(c)
DAV:   1    -0.774310100941E+03    0.34817E-02   -0.22178E+00 17600   0.276E+00    0.985E-01
DAV:   2    -0.774318234096E+03   -0.81332E-02   -0.95151E-02 19680   0.429E-01    0.898E-01
DAV:   3    -0.774317543974E+03    0.69012E-03   -0.46504E-02 22320   0.214E-01    0.638E-01
DAV:   4    -0.774317274444E+03    0.26953E-03   -0.36233E-02 21280   0.158E-01    0.551E-01
DAV:   5    -0.774317088576E+03    0.18587E-03   -0.28247E-02 24720   0.134E-01    0.510E-01
DAV:   6    -0.774316060468E+03    0.10281E-02   -0.84830E-03 21200   0.860E-02    0.739E-02
DAV:   7    -0.774316117282E+03   -0.56814E-04   -0.53850E-04 15360   0.310E-02
   7 F= -.77431612E+03 E0= -.77428005E+03  d E =-.491622E-01  mag=    -0.0006
       N       E                     dE             d eps       ncg     rms          rms(c)
DAV:   1    -0.774289480259E+03    0.26580E-01   -0.10998E+01 17280   0.602E+00    0.188E+00
DAV:   2    -0.774335110538E+03   -0.45630E-01   -0.52441E-01 19360   0.102E+00    0.162E+00
DAV:   3    -0.774337854915E+03   -0.27444E-02   -0.18881E-01 22720   0.469E-01    0.137E+00
DAV:   4    -0.774336471636E+03    0.13833E-02   -0.23260E-01 24960   0.397E-01    0.139E+00
DAV:   5    -0.774332168912E+03    0.43027E-02   -0.80332E-02 24480   0.249E-01    0.824E-01
DAV:   6    -0.774329844683E+03    0.23242E-02   -0.27193E-02 21120   0.160E-01    0.289E-01
DAV:   7    -0.774329820843E+03    0.23841E-04   -0.70439E-03 22400   0.826E-02    0.207E-01
DAV:   8    -0.774329597382E+03    0.22346E-03   -0.27292E-03 19120   0.480E-02    0.842E-02
DAV:   9    -0.774329569861E+03    0.27521E-04   -0.41238E-04 13120   0.251E-02
   8 F= -.77432957E+03 E0= -.77429413E+03  d E =-.134526E-01  mag=    -0.0005
       N       E                     dE             d eps       ncg     rms          rms(c)
DAV:   1    -0.774329451008E+03    0.14637E-03   -0.52359E-02 19040   0.416E-01    0.142E-01
DAV:   2    -0.774329667805E+03   -0.21680E-03   -0.24168E-03 19760   0.696E-02    0.949E-02
DAV:   3    -0.774329683466E+03   -0.15661E-04   -0.48881E-04 13760   0.265E-02    0.842E-02
DAV:   4    -0.774329674676E+03    0.87909E-05   -0.57722E-04 12880   0.230E-02    0.612E-02
DAV:   5    -0.774329683119E+03   -0.84434E-05   -0.57912E-04 12320   0.208E-02    0.790E-02
DAV:   6    -0.774329662588E+03    0.20531E-04   -0.17725E-04 12640   0.129E-02
   9 F= -.77432966E+03 E0= -.77429424E+03  d E =-.135453E-01  mag=    -0.0004
       N       E                     dE             d eps       ncg     rms          rms(c)
DAV:   1    -0.774326636687E+03    0.30464E-02   -0.23937E+00 17760   0.273E+00    0.719E-01
DAV:   2    -0.774333280477E+03   -0.66438E-02   -0.77672E-02 20800   0.372E-01    0.819E-01
DAV:   3    -0.774332131987E+03    0.11485E-02   -0.34271E-02 21840   0.171E-01    0.445E-01
DAV:   4    -0.774332840926E+03   -0.70894E-03   -0.30395E-02 23760   0.144E-01    0.592E-01
DAV:   5    -0.774332091795E+03    0.74913E-03   -0.15039E-02 23840   0.110E-01    0.380E-01
DAV:   6    -0.774331544135E+03    0.54766E-03   -0.54204E-03 20640   0.731E-02    0.105E-01
DAV:   7    -0.774331556567E+03   -0.12432E-04   -0.11291E-03 18160   0.325E-02    0.855E-02
DAV:   8    -0.774331521200E+03    0.35367E-04   -0.30446E-04 12800   0.173E-02
  10 F= -.77433152E+03 E0= -.77429596E+03  d E =-.185861E-02  mag=    -0.0004
       N       E                     dE             d eps       ncg     rms          rms(c)
DAV:   1    -0.774331449073E+03    0.10749E-03   -0.15792E-01 18400   0.700E-01    0.184E-01
DAV:   2    -0.774331930755E+03   -0.48168E-03   -0.57196E-03 20320   0.982E-02    0.235E-01
DAV:   3    -0.774331755412E+03    0.17534E-03   -0.24392E-03 14880   0.452E-02    0.105E-01
DAV:   4    -0.774331868471E+03   -0.11306E-03   -0.16444E-03 12640   0.367E-02    0.152E-01
DAV:   5    -0.774331834413E+03    0.34058E-04   -0.97784E-04 13040   0.288E-02    0.959E-02
DAV:   6    -0.774331818493E+03    0.15920E-04   -0.41708E-04 12720   0.204E-02
  11 F= -.77433182E+03 E0= -.77429629E+03  d E =-.215590E-02  mag=    -0.0003
       N       E                     dE             d eps       ncg     rms          rms(c)
DAV:   1    -0.774326855317E+03    0.49791E-02   -0.19227E+00 17600   0.237E+00    0.583E-01
DAV:   2    -0.774335275370E+03   -0.84201E-02   -0.98751E-02 19680   0.408E-01    0.530E-01
DAV:   3    -0.774335021928E+03    0.25344E-03   -0.22929E-02 22400   0.151E-01    0.445E-01
DAV:   4    -0.774334477954E+03    0.54397E-03   -0.10598E-02 21600   0.862E-02    0.258E-01
DAV:   5    -0.774334767754E+03   -0.28980E-03   -0.39868E-03 19600   0.645E-02    0.268E-01
DAV:   6    -0.774334641014E+03    0.12674E-03   -0.46599E-03 17120   0.606E-02    0.167E-01
DAV:   7    -0.774334520912E+03    0.12010E-03   -0.14344E-03 18240   0.399E-02    0.491E-02
DAV:   8    -0.774334513107E+03    0.78048E-05   -0.19212E-04 12960   0.158E-02
  12 F= -.77433451E+03 E0= -.77429896E+03  d E =-.269461E-02  mag=    -0.0003
       N       E                     dE             d eps       ncg     rms          rms(c)
DAV:   1    -0.774281128895E+03    0.53392E-01   -0.14077E+01 17280   0.642E+00    0.159E+00
DAV:   2    -0.774344970846E+03   -0.63842E-01   -0.74600E-01 20000   0.112E+00    0.153E+00
DAV:   3    -0.774341262453E+03    0.37084E-02   -0.18869E-01 22240   0.427E-01    0.123E+00
DAV:   4    -0.774336986326E+03    0.42761E-02   -0.79695E-02 22080   0.233E-01    0.699E-01
DAV:   5    -0.774339025599E+03   -0.20393E-02   -0.29826E-02 22800   0.177E-01    0.743E-01
DAV:   6    -0.774338259268E+03    0.76633E-03   -0.35106E-02 22240   0.162E-01    0.457E-01
DAV:   7    -0.774337359180E+03    0.90009E-03   -0.10985E-02 23040   0.109E-01    0.148E-01
DAV:   8    -0.774337299179E+03    0.60001E-04   -0.15942E-03 18160   0.424E-02    0.817E-02
DAV:   9    -0.774337264724E+03    0.34455E-04   -0.23102E-04 12720   0.190E-02
  13 F= -.77433726E+03 E0= -.77430171E+03  d E =-.544623E-02  mag=    -0.0003
       N       E                     dE             d eps       ncg     rms          rms(c)
DAV:   1    -0.774332666413E+03    0.46328E-02   -0.16420E+00 17600   0.239E+00    0.593E-01
DAV:   2    -0.774339145342E+03   -0.64789E-02   -0.76706E-02 18000   0.405E-01    0.427E-01
DAV:   3    -0.774339355347E+03   -0.21000E-03   -0.13642E-02 22240   0.133E-01    0.367E-01
DAV:   4    -0.774339049345E+03    0.30600E-03   -0.11627E-02 21920   0.886E-02    0.270E-01
DAV:   5    -0.774339255954E+03   -0.20661E-03   -0.48771E-03 21280   0.655E-02    0.249E-01
DAV:   6    -0.774339089823E+03    0.16613E-03   -0.33297E-03 18080   0.578E-02    0.147E-01
DAV:   7    -0.774338982883E+03    0.10694E-03   -0.10868E-03 17680   0.330E-02    0.458E-02
DAV:   8    -0.774338988726E+03   -0.58432E-05   -0.18769E-04 12480   0.153E-02
  14 F= -.77433899E+03 E0= -.77430349E+03  d E =-.172400E-02  mag=    -0.0002
       N       E                     dE             d eps       ncg     rms          rms(c)
DAV:   1    -0.774335295553E+03    0.36873E-02   -0.10730E+00 17440   0.193E+00    0.482E-01
DAV:   2    -0.774339471618E+03   -0.41761E-02   -0.49447E-02 18160   0.327E-01    0.333E-01
DAV:   3    -0.774339639972E+03   -0.16835E-03   -0.76963E-03 22080   0.102E-01    0.288E-01
DAV:   4    -0.774339485952E+03    0.15402E-03   -0.69764E-03 21360   0.693E-02    0.219E-01
DAV:   5    -0.774339540129E+03   -0.54177E-04   -0.21766E-03 19840   0.427E-02    0.155E-01
DAV:   6    -0.774339448825E+03    0.91304E-04   -0.74794E-04 17440   0.353E-02
  15 F= -.77433945E+03 E0= -.77430392E+03  d E =-.218410E-02  mag=    -0.0002
       N       E                     dE             d eps       ncg     rms          rms(c)
DAV:   1    -0.774339277271E+03    0.26286E-03   -0.28646E-01 18160   0.995E-01    0.272E-01
DAV:   2    -0.774340101776E+03   -0.82451E-03   -0.92559E-03 17920   0.139E-01    0.131E-01
DAV:   3    -0.774340159606E+03   -0.57830E-04   -0.87278E-04 17760   0.346E-02    0.120E-01
DAV:   4    -0.774340166692E+03   -0.70862E-05   -0.14343E-03 14720   0.313E-02    0.108E-01
DAV:   5    -0.774340142644E+03    0.24048E-04   -0.62746E-04 12480   0.220E-02    0.507E-02
DAV:   6    -0.774340127086E+03    0.15558E-04   -0.15776E-04 12480   0.149E-02
  16 F= -.77434013E+03 E0= -.77430457E+03  d E =-.678260E-03  mag=    -0.0002
       N       E                     dE             d eps       ncg     rms          rms(c)
DAV:   1    -0.774337845517E+03    0.22971E-02   -0.92801E-01 17440   0.179E+00    0.483E-01
DAV:   2    -0.774340489241E+03   -0.26437E-02   -0.29812E-02 17760   0.250E-01    0.250E-01
DAV:   3    -0.774340681954E+03   -0.19271E-03   -0.27883E-03 21440   0.649E-02    0.217E-01
DAV:   4    -0.774340838736E+03   -0.15678E-03   -0.64731E-03 19360   0.695E-02    0.273E-01
DAV:   5    -0.774340703943E+03    0.13479E-03   -0.41639E-03 13600   0.564E-02    0.167E-01
DAV:   6    -0.774340586088E+03    0.11785E-03   -0.10009E-03 12480   0.323E-02    0.259E-02
DAV:   7    -0.774340590260E+03   -0.41714E-05   -0.72254E-05 12640   0.133E-02
  17 F= -.77434059E+03 E0= -.77430489E+03  d E =-.114143E-02  mag=    -0.0002
       N       E                     dE             d eps       ncg     rms          rms(c)
DAV:   1    -0.774340392613E+03    0.19348E-03   -0.17643E-01 17760   0.826E-01    0.161E-01
DAV:   2    -0.774341053569E+03   -0.66096E-03   -0.77270E-03 18560   0.135E-01    0.134E-01
DAV:   3    -0.774341080667E+03   -0.27098E-04   -0.13281E-03 16160   0.366E-02    0.994E-02
DAV:   4    -0.774341064248E+03    0.16419E-04   -0.10699E-03 13280   0.257E-02    0.887E-02
DAV:   5    -0.774341082356E+03   -0.18108E-04   -0.41215E-04 12000   0.197E-02    0.591E-02
DAV:   6    -0.774341068732E+03    0.13624E-04   -0.19777E-04 12640   0.138E-02
  18 F= -.77434107E+03 E0= -.77430533E+03  d E =-.478473E-03  mag=    -0.0001
       N       E                     dE             d eps       ncg     rms          rms(c)
DAV:   1    -0.774335933312E+03    0.51490E-02   -0.15876E+00 17440   0.248E+00    0.472E-01
DAV:   2    -0.774341871865E+03   -0.59386E-02   -0.68691E-02 18720   0.401E-01    0.400E-01
DAV:   3    -0.774341941956E+03   -0.70091E-04   -0.10720E-02 21920   0.106E-01    0.285E-01
DAV:   4    -0.774341851855E+03    0.90101E-04   -0.94435E-03 21120   0.736E-02    0.286E-01
DAV:   5    -0.774342073025E+03   -0.22117E-03   -0.39822E-03 14400   0.578E-02    0.208E-01
DAV:   6    -0.774341932850E+03    0.14017E-03   -0.19991E-03 15360   0.429E-02    0.650E-02
DAV:   7    -0.774341936684E+03   -0.38343E-05   -0.42097E-04 13280   0.215E-02
  19 F= -.77434194E+03 E0= -.77430613E+03  d E =-.134642E-02  mag=    -0.0001
       N       E                     dE             d eps       ncg     rms          rms(c)
DAV:   1    -0.774317029084E+03    0.24904E-01   -0.63538E+00 17280   0.495E+00    0.947E-01
DAV:   2    -0.774340964227E+03   -0.23935E-01   -0.27399E-01 18800   0.803E-01    0.789E-01
DAV:   3    -0.774341039377E+03   -0.75150E-04   -0.41082E-02 21920   0.211E-01    0.571E-01
DAV:   4    -0.774340710797E+03    0.32858E-03   -0.37289E-02 22400   0.144E-01    0.577E-01
DAV:   5    -0.774341192020E+03   -0.48122E-03   -0.12165E-02 21120   0.106E-01    0.260E-01
DAV:   6    -0.774341055577E+03    0.13644E-03   -0.37791E-03 20000   0.618E-02    0.111E-01
DAV:   7    -0.774341058034E+03   -0.24572E-05   -0.12587E-03 13200   0.327E-02    0.983E-02
DAV:   8    -0.774341015547E+03    0.42488E-04   -0.40448E-04 12480   0.221E-02
  20 F= -.77434102E+03 E0= -.77430499E+03  d E =-.425287E-03  mag=    -0.0001
       N       E                     dE             d eps       ncg     rms          rms(c)
DAV:   1    -0.774328989980E+03    0.12068E-01   -0.34625E+00 17280   0.366E+00    0.689E-01
DAV:   2    -0.774342194373E+03   -0.13204E-01   -0.15143E-01 19200   0.594E-01    0.618E-01
DAV:   3    -0.774341951881E+03    0.24249E-03   -0.27076E-02 21920   0.163E-01    0.448E-01
DAV:   4    -0.774341631823E+03    0.32006E-03   -0.19200E-02 22560   0.107E-01    0.396E-01
DAV:   5    -0.774342123859E+03   -0.49204E-03   -0.55984E-03 20640   0.780E-02    0.227E-01
DAV:   6    -0.774342064701E+03    0.59158E-04   -0.23561E-03 18240   0.511E-02    0.864E-02
DAV:   7    -0.774342072239E+03   -0.75385E-05   -0.89866E-04 13040   0.280E-02
  21 F= -.77434207E+03 E0= -.77430618E+03  d E =-.148198E-02  mag=    -0.0001
       N       E                     dE             d eps       ncg     rms          rms(c)
DAV:   1    -0.774341866884E+03    0.19782E-03   -0.19911E-01 17920   0.856E-01    0.229E-01
DAV:   2    -0.774342474941E+03   -0.60806E-03   -0.69001E-03 20640   0.127E-01    0.155E-01
DAV:   3    -0.774342543860E+03   -0.68919E-04   -0.18600E-03 17440   0.473E-02    0.152E-01
DAV:   4    -0.774342510772E+03    0.33088E-04   -0.24407E-03 12800   0.438E-02    0.128E-01
DAV:   5    -0.774342509284E+03    0.14879E-05   -0.13354E-03 12880   0.334E-02    0.113E-01
DAV:   6    -0.774342452098E+03    0.57187E-04   -0.48338E-04 12640   0.233E-02
  22 F= -.77434245E+03 E0= -.77430657E+03  d E =-.379858E-03  mag=    -0.0001
