       N       E                     dE             d eps       ncg     rms          rms(c)
DAV:   1     0.137420966157E+05    0.13742E+05   -0.59542E+05 20032   0.135E+03
DAV:   2     0.460497044131E+03   -0.13282E+05   -0.12669E+05 22832   0.560E+02
DAV:   3    -0.923212155400E+03   -0.13837E+04   -0.13518E+04 19744   0.165E+02
DAV:   4    -0.980048356100E+03   -0.56836E+02   -0.55450E+02 23104   0.415E+01
DAV:   5    -0.981840100212E+03   -0.17917E+01   -0.17511E+01 21440   0.641E+00
DAV:   6    -0.981923752485E+03   -0.83652E-01   -0.82769E-01 22912   0.150E+00
DAV:   7    -0.981927874425E+03   -0.41219E-02   -0.41078E-02 21280   0.273E-01
DAV:   8    -0.981928126529E+03   -0.25210E-03   -0.25166E-03 18688   0.662E-02    0.366E+02
DAV:   9    -0.637522669399E+03    0.34441E+03   -0.14691E+03 21088   0.633E+01    0.283E+02
DAV:  10    -0.746622653563E+03   -0.10910E+03   -0.80591E+02 22736   0.591E+01    0.360E+02
DAV:  11    -0.647847965520E+03    0.98775E+02   -0.21319E+02 21056   0.241E+01    0.169E+02
DAV:  12    -0.786814089308E+03   -0.13897E+03   -0.63048E+02 21472   0.465E+01    0.326E+02
DAV:  13    -0.526986900285E+03    0.25983E+03   -0.12364E+02 21520   0.215E+01    0.149E+02
DAV:  14    -0.509712769964E+03    0.17274E+02   -0.13231E+02 21056   0.187E+01    0.819E+01
DAV:  15    -0.520024727456E+03   -0.10312E+02   -0.62440E+01 19760   0.107E+01    0.654E+01
DAV:  16    -0.513930136357E+03    0.60946E+01   -0.12527E+01 19536   0.579E+00    0.626E+01
DAV:  17    -0.531061982506E+03   -0.17132E+02   -0.72621E+00 22128   0.483E+00    0.533E+01
DAV:  18    -0.550278523682E+03   -0.19217E+02   -0.10654E+01 20304   0.593E+00    0.391E+01
DAV:  19    -0.560006352569E+03   -0.97278E+01   -0.54086E+00 20608   0.409E+00    0.299E+01
DAV:  20    -0.562323099722E+03   -0.23167E+01   -0.16024E+00 19472   0.226E+00    0.262E+01
DAV:  21    -0.577492582411E+03   -0.15169E+02   -0.19596E+00 20032   0.219E+00    0.235E+01
DAV:  22    -0.596597677095E+03   -0.19105E+02   -0.27456E+00 18880   0.221E+00    0.214E+01
DAV:  23    -0.619477215530E+03   -0.22880E+02   -0.55439E+00 20080   0.328E+00    0.206E+01
DAV:  24    -0.635619597702E+03   -0.16142E+02   -0.72967E+00 18688   0.332E+00    0.228E+01
DAV:  25    -0.659649397769E+03   -0.24030E+02   -0.16508E+01 19184   0.448E+00    0.322E+01
DAV:  26    -0.691400242230E+03   -0.31751E+02   -0.27449E+01 20080   0.612E+00    0.464E+01
DAV:  27    -0.696907444929E+03   -0.55072E+01   -0.36078E+00 20736   0.239E+00    0.420E+01
DAV:  28    -0.720617267085E+03   -0.23710E+02   -0.19589E+01 19888   0.450E+00    0.447E+01
DAV:  29    -0.727289274336E+03   -0.66720E+01   -0.63140E+00 18848   0.299E+00    0.347E+01
DAV:  30    -0.740431281286E+03   -0.13142E+02   -0.12965E+00 20368   0.175E+00    0.273E+01
DAV:  31    -0.751376283637E+03   -0.10945E+02   -0.15085E+00 19920   0.185E+00    0.190E+01
DAV:  32    -0.761477260313E+03   -0.10101E+02   -0.14414E+00 19280   0.158E+00    0.137E+01
DAV:  33    -0.764919720066E+03   -0.34425E+01   -0.12038E+00 20016   0.164E+00    0.115E+01
DAV:  34    -0.764096632710E+03    0.82309E+00   -0.48190E-01 18656   0.104E+00    0.102E+01
DAV:  35    -0.764875241282E+03   -0.77861E+00   -0.99357E-02 21552   0.570E-01    0.829E+00
DAV:  36    -0.765750564648E+03   -0.87532E+00   -0.74461E-02 20688   0.514E-01    0.702E+00
DAV:  37    -0.767671161186E+03   -0.19206E+01   -0.61918E-02 19888   0.487E-01    0.479E+00
DAV:  38    -0.768973537976E+03   -0.13024E+01   -0.25264E-02 18992   0.271E-01    0.425E+00
DAV:  39    -0.770872534805E+03   -0.18990E+01   -0.46499E-02 18544   0.284E-01    0.368E+00
DAV:  40    -0.772937433541E+03   -0.20649E+01   -0.92337E-02 18592   0.437E-01    0.267E+00
DAV:  41    -0.773694112583E+03   -0.75668E+00   -0.34568E-02 18560   0.235E-01    0.231E+00
DAV:  42    -0.774144020916E+03   -0.44991E+00   -0.19963E-02 19040   0.156E-01    0.164E+00
DAV:  43    -0.774520527352E+03   -0.37651E+00   -0.24335E-02 18864   0.168E-01    0.877E-01
DAV:  44    -0.774676681311E+03   -0.15615E+00   -0.62956E-03 19904   0.908E-02    0.474E-01
DAV:  45    -0.774741258335E+03   -0.64577E-01   -0.12167E-03 18752   0.543E-02    0.222E-01
DAV:  46    -0.774777343149E+03   -0.36085E-01   -0.45735E-04 15216   0.309E-02    0.104E-01
DAV:  47    -0.774798488243E+03   -0.21145E-01   -0.29138E-04 13904   0.293E-02    0.103E-01
DAV:  48    -0.774811088867E+03   -0.12601E-01   -0.26368E-04 14784   0.237E-02    0.662E-02
DAV:  49    -0.774814977630E+03   -0.38888E-02   -0.53757E-05 12304   0.133E-02    0.602E-02
DAV:  50    -0.774822164098E+03   -0.71865E-02   -0.86298E-05 12816   0.130E-02    0.445E-02
DAV:  51    -0.774829072268E+03   -0.69082E-02   -0.78947E-05 11840   0.152E-02    0.547E-02
DAV:  52    -0.774832473274E+03   -0.34010E-02   -0.31341E-05 10944   0.117E-02    0.598E-02
DAV:  53    -0.774841693635E+03   -0.92204E-02   -0.11242E-04 12768   0.149E-02    0.621E-02
DAV:  54    -0.774854897677E+03   -0.13204E-01   -0.21056E-04 14416   0.189E-02    0.480E-02
DAV:  55    -0.774864009133E+03   -0.91115E-02   -0.10946E-04 13072   0.144E-02    0.437E-02
DAV:  56    -0.774870519995E+03   -0.65109E-02   -0.90865E-05 12544   0.143E-02    0.267E-02
DAV:  57    -0.774872888644E+03   -0.23686E-02   -0.34590E-05 11360   0.112E-02    0.185E-02
DAV:  58    -0.774874258927E+03   -0.13703E-02   -0.19583E-05 10912   0.860E-03    0.128E-02
DAV:  59    -0.774875026645E+03   -0.76772E-03   -0.11077E-05 10496   0.642E-03    0.952E-03
DAV:  60    -0.774875124872E+03   -0.98227E-04   -0.66253E-06 10448   0.486E-03
   1 F= -.77487512E+03 E0= -.77483664E+03  d E =-.774875E+03  mag=    -0.0064
       N       E                     dE             d eps       ncg     rms          rms(c)
DAV:   1    -0.157778081288E+03    0.61710E+03   -0.40314E+04 21808   0.216E+02    0.102E+03
DAV:   2    -0.725609297379E+03   -0.56783E+03   -0.45510E+03 20032   0.867E+01    0.572E+02
DAV:   3    -0.629005132810E+03    0.96604E+02   -0.83508E+02 21728   0.700E+01    0.363E+02
DAV:   4    -0.696925976368E+03   -0.67921E+02   -0.37212E+02 23344   0.490E+01    0.369E+02
DAV:   5    -0.622840801131E+03    0.74085E+02   -0.53956E+02 23440   0.384E+01    0.255E+02
DAV:   6    -0.739952547985E+03   -0.11711E+03   -0.42408E+02 23472   0.432E+01    0.316E+02
DAV:   7    -0.680967723763E+03    0.58985E+02   -0.10370E+02 21776   0.168E+01    0.188E+02
DAV:   8    -0.588958757972E+03    0.92009E+02   -0.11411E+02 23264   0.187E+01    0.127E+02
DAV:   9    -0.570008572905E+03    0.18950E+02   -0.20822E+01 22576   0.857E+00    0.110E+02
DAV:  10    -0.570107374274E+03   -0.98801E-01   -0.18934E+00 19360   0.205E+00    0.110E+02
DAV:  11    -0.569311717301E+03    0.79566E+00   -0.18337E-01 24096   0.792E-01    0.109E+02
DAV:  12    -0.566626792785E+03    0.26849E+01   -0.16411E+00 22688   0.248E+00    0.111E+02
DAV:  13    -0.561603553797E+03    0.50232E+01   -0.29566E+00 22224   0.298E+00    0.112E+02
DAV:  14    -0.576841146544E+03   -0.15238E+02   -0.50621E+01 21280   0.118E+01    0.103E+02
DAV:  15    -0.576527828459E+03    0.31332E+00   -0.40009E+00 20624   0.329E+00    0.108E+02
DAV:  16    -0.565964280336E+03    0.10564E+02   -0.48029E+00 22560   0.448E+00    0.105E+02
DAV:  17    -0.552966290529E+03    0.12998E+02   -0.64510E+00 21984   0.375E+00    0.956E+01
DAV:  18    -0.606037933778E+03   -0.53072E+02   -0.20454E+02 19792   0.211E+01    0.190E+02
DAV:  19    -0.607677809200E+03   -0.16399E+01   -0.94775E+00 21120   0.475E+00    0.203E+02
DAV:  20    -0.617689511861E+03   -0.10012E+02   -0.31131E+00 22112   0.282E+00    0.211E+02
DAV:  21    -0.620010953115E+03   -0.23214E+01   -0.31749E-01 23520   0.823E-01    0.216E+02
DAV:  22    -0.613822494102E+03    0.61885E+01   -0.94322E-01 21008   0.175E+00    0.212E+02
DAV:  23    -0.588920053528E+03    0.24902E+02   -0.17913E+01 21520   0.754E+00    0.203E+02
DAV:  24    -0.553040538208E+03    0.35880E+02   -0.15685E+02 20528   0.203E+01    0.189E+02
DAV:  25    -0.556832275904E+03   -0.37917E+01   -0.17557E+01 23760   0.664E+00    0.171E+02
DAV:  26    -0.556330577753E+03    0.50170E+00   -0.48438E-01 21424   0.108E+00    0.169E+02
DAV:  27    -0.555335268060E+03    0.99531E+00   -0.91030E-01 21008   0.149E+00    0.166E+02
DAV:  28    -0.560032678724E+03   -0.46974E+01   -0.11790E+01 19584   0.524E+00    0.128E+02
DAV:  29    -0.556654538889E+03    0.33781E+01   -0.11938E+00 18640   0.174E+00    0.157E+02
DAV:  30    -0.553533667819E+03    0.31209E+01   -0.12105E+00 20624   0.133E+00    0.183E+02
DAV:  31    -0.554830439489E+03   -0.12968E+01   -0.33116E-01 18944   0.728E-01    0.171E+02
DAV:  32    -0.555143189225E+03   -0.31275E+00   -0.78714E-01 19664   0.136E+00    0.168E+02
DAV:  33    -0.555794290859E+03   -0.65110E+00   -0.11130E-01 18688   0.346E-01    0.168E+02
DAV:  34    -0.558552114145E+03   -0.27578E+01   -0.24258E+00 18960   0.879E-01    0.165E+02
DAV:  35    -0.555599057913E+03    0.29531E+01   -0.83288E+00 18352   0.170E+00    0.169E+02
DAV:  36    -0.559138117217E+03   -0.35391E+01   -0.79037E+00 18672   0.205E+00    0.187E+02
DAV:  37    -0.559382040339E+03   -0.24392E+00   -0.15323E-01 19248   0.343E-01    0.187E+02
DAV:  38    -0.561032048771E+03   -0.16500E+01   -0.57240E-01 17872   0.441E-01    0.186E+02
DAV:  39    -0.556986010149E+03    0.40460E+01   -0.39370E+00 17424   0.126E+00    0.199E+02
DAV:  40    -0.557202467973E+03   -0.21646E+00   -0.65862E-02 19280   0.250E-01    0.199E+02
DAV:  41    -0.553135302726E+03    0.40672E+01   -0.36589E+00 18848   0.130E+00    0.193E+02
DAV:  42    -0.556110854672E+03   -0.29756E+01   -0.28269E+00 21376   0.271E+00    0.223E+02
DAV:  43    -0.555948867832E+03    0.16199E+00   -0.64367E-02 19056   0.379E-01    0.223E+02
DAV:  44    -0.557361495276E+03   -0.14126E+01   -0.13329E-01 21648   0.475E-01    0.228E+02
DAV:  45    -0.557209638969E+03    0.15186E+00   -0.93097E-03 18432   0.132E-01    0.226E+02
DAV:  46    -0.554490915768E+03    0.27187E+01   -0.80785E-01 20192   0.111E+00    0.203E+02
DAV:  47    -0.549987200314E+03    0.45037E+01   -0.86648E-01 18992   0.132E+00    0.227E+02
DAV:  48    -0.543642508153E+03    0.63447E+01   -0.21953E+00 21264   0.216E+00    0.196E+02
DAV:  49    -0.541163903636E+03    0.24786E+01   -0.32287E+00 20000   0.123E+00    0.191E+02
DAV:  50    -0.540771219732E+03    0.39268E+00   -0.15725E-01 19984   0.515E-01    0.189E+02
DAV:  51    -0.540938552462E+03   -0.16733E+00   -0.73991E-01 20240   0.958E-01    0.174E+02
DAV:  52    -0.536253607416E+03    0.46849E+01   -0.82995E+01 19040   0.879E+00    0.413E+01
DAV:  53    -0.533648752075E+03    0.26049E+01   -0.19938E+00 18528   0.222E+00    0.358E+01
DAV:  54    -0.536567568818E+03   -0.29188E+01   -0.44284E-01 19920   0.801E-01    0.334E+01
DAV:  55    -0.538939239404E+03   -0.23717E+01   -0.87185E-01 19536   0.125E+00    0.240E+01
DAV:  56    -0.538087520496E+03    0.85172E+00   -0.98825E+00 19152   0.255E+00    0.432E+01
DAV:  57    -0.534479882850E+03    0.36076E+01   -0.45801E+00 20560   0.226E+00    0.353E+01
DAV:  58    -0.524729459812E+03    0.97504E+01   -0.77758E+00 18288   0.157E+00    0.511E+01
DAV:  59    -0.526653436419E+03   -0.19240E+01   -0.68354E-01 18784   0.596E-01    0.566E+01
DAV:  60    -0.515707561447E+03    0.10946E+02   -0.11422E+01 17488   0.115E+00    0.522E+01
DAV:  61    -0.514008674032E+03    0.16989E+01   -0.13264E-01 17824   0.292E-01    0.533E+01
DAV:  62    -0.516151140988E+03   -0.21425E+01   -0.27773E+00 21264   0.107E+00    0.411E+01
DAV:  63    -0.530884280154E+03   -0.14733E+02   -0.34163E+00 18320   0.117E+00    0.412E+01
DAV:  64    -0.526390717970E+03    0.44936E+01   -0.35908E+00 17808   0.119E+00    0.412E+01
DAV:  65    -0.523439666116E+03    0.29511E+01   -0.74020E-01 18128   0.703E-01    0.388E+01
DAV:  66    -0.522505581540E+03    0.93408E+00   -0.13002E+00 18464   0.831E-01    0.375E+01
DAV:  67    -0.524193640553E+03   -0.16881E+01   -0.13023E+00 18896   0.113E+00    0.412E+01
DAV:  68    -0.523354035161E+03    0.83961E+00   -0.53029E-01 19264   0.462E-01    0.415E+01
DAV:  69    -0.520745038491E+03    0.26090E+01   -0.41512E-01 17808   0.432E-01    0.426E+01
DAV:  70    -0.520716345384E+03    0.28693E-01   -0.46491E-03 19136   0.780E-02    0.426E+01
DAV:  71    -0.521055858413E+03   -0.33951E+00   -0.10240E-01 18016   0.257E-01    0.429E+01
DAV:  72    -0.521616653110E+03   -0.56079E+00   -0.12922E+00 18592   0.105E+00    0.418E+01
DAV:  73    -0.521677252263E+03   -0.60599E-01   -0.38217E-01 17984   0.733E-01    0.412E+01
DAV:  74    -0.517444666654E+03    0.42326E+01   -0.25243E-01 20144   0.489E-01    0.395E+01
DAV:  75    -0.519955077569E+03   -0.25104E+01   -0.32416E-01 17472   0.332E-01    0.399E+01
DAV:  76    -0.519681586248E+03    0.27349E+00   -0.77017E-03 15408   0.749E-02    0.399E+01
DAV:  77    -0.502419432547E+03    0.17262E+02   -0.15952E+01 17888   0.326E+00    0.237E+01
DAV:  78    -0.486558021408E+03    0.15861E+02   -0.10769E+00 20592   0.138E+00    0.251E+01
DAV:  79    -0.484131450805E+03    0.24266E+01   -0.59341E-02 22016   0.308E-01    0.256E+01
DAV:  80    -0.491432339235E+03   -0.73009E+01   -0.15572E-01 17632   0.522E-01    0.243E+01
DAV:  81    -0.492237543822E+03   -0.80520E+00   -0.12953E+00 18416   0.109E+00    0.268E+01
DAV:  82    -0.479639176876E+03    0.12598E+02   -0.24997E+00 16912   0.151E+00    0.248E+01
DAV:  83    -0.478106569174E+03    0.15326E+01   -0.10473E-01 20928   0.319E-01    0.251E+01
DAV:  84    -0.482040579575E+03   -0.39340E+01   -0.36632E-02 18160   0.267E-01    0.247E+01
DAV:  85    -0.482011300894E+03    0.29279E-01   -0.49605E-03 19104   0.738E-02    0.247E+01
DAV:  86    -0.490918458770E+03   -0.89072E+01   -0.11544E-01 18304   0.425E-01    0.244E+01
DAV:  87    -0.494426425906E+03   -0.35080E+01   -0.11007E+00 19680   0.109E+00    0.275E+01
DAV:  88    -0.520642533626E+03   -0.26216E+02   -0.15466E+01 19520   0.106E+00    0.308E+01
DAV:  89    -0.548236405980E+03   -0.27594E+02   -0.92611E-01 17936   0.954E-01    0.284E+01
DAV:  90    -0.563670746225E+03   -0.15434E+02   -0.55351E-01 20064   0.734E-01    0.269E+01
DAV:  91    -0.567143915562E+03   -0.34732E+01   -0.85345E-02 19264   0.450E-01    0.263E+01
DAV:  92    -0.564747834503E+03    0.23961E+01   -0.84486E-02 20736   0.491E-01    0.266E+01
DAV:  93    -0.563471828660E+03    0.12760E+01   -0.15166E-01 19840   0.632E-01    0.254E+01
DAV:  94    -0.562252206872E+03    0.12196E+01   -0.14669E-01 20160   0.543E-01    0.244E+01
DAV:  95    -0.557773349802E+03    0.44789E+01   -0.13149E-01 19520   0.411E-01    0.234E+01
DAV:  96    -0.553118868821E+03    0.46545E+01   -0.13772E-01 19376   0.398E-01    0.224E+01
DAV:  97    -0.550477849263E+03    0.26410E+01   -0.87705E-02 18880   0.411E-01    0.233E+01
DAV:  98    -0.546135833779E+03    0.43420E+01   -0.25418E-01 19344   0.456E-01    0.226E+01
DAV:  99    -0.546374473295E+03   -0.23864E+00   -0.14562E-02 18528   0.167E-01    0.229E+01
DAV: 100    -0.546421594429E+03   -0.47121E-01   -0.11363E-03 17728   0.384E-02    0.229E+01
DAV: 101    -0.546597472415E+03   -0.17588E+00   -0.83714E-03 18496   0.653E-02    0.231E+01
DAV: 102    -0.541909305163E+03    0.46882E+01   -0.10229E+01 18432   0.100E+00    0.217E+01
DAV: 103    -0.542293061340E+03   -0.38376E+00   -0.65522E-01 18992   0.479E-01    0.216E+01
DAV: 104    -0.542721177387E+03   -0.42812E+00   -0.79492E-02 18224   0.304E-01    0.206E+01
DAV: 105    -0.543221530724E+03   -0.50035E+00   -0.73398E-02 19824   0.306E-01    0.195E+01
DAV: 106    -0.543879522264E+03   -0.65799E+00   -0.12251E-01 19344   0.416E-01    0.176E+01
DAV: 107    -0.544344963679E+03   -0.46544E+00   -0.52794E-01 18800   0.862E-01    0.139E+01
DAV: 108    -0.544448518099E+03   -0.10355E+00   -0.12982E-01 20848   0.387E-01    0.124E+01
DAV: 109    -0.544465455519E+03   -0.16937E-01   -0.83923E-02 20112   0.359E-01    0.108E+01
DAV: 110    -0.544521138744E+03   -0.55683E-01   -0.10723E-01 19344   0.423E-01    0.875E+00
DAV: 111    -0.544560025220E+03   -0.38886E-01   -0.37338E-02 20576   0.237E-01    0.754E+00
DAV: 112    -0.545224548466E+03   -0.66452E+00   -0.76887E-01 19280   0.830E-01    0.775E+00
DAV: 113    -0.544903005398E+03    0.32154E+00   -0.87144E-01 19328   0.308E-01    0.355E+00
DAV: 114    -0.544922428224E+03   -0.19423E-01   -0.23749E-02 19248   0.170E-01    0.285E+00
DAV: 115    -0.545165363200E+03   -0.24293E+00   -0.41425E-02 17600   0.176E-01    0.233E+00
DAV: 116    -0.545415378158E+03   -0.25001E+00   -0.11411E-02 18464   0.138E-01    0.188E+00
DAV: 117    -0.545554366260E+03   -0.13899E+00   -0.11553E-02 17104   0.125E-01    0.154E+00
DAV: 118    -0.545581457252E+03   -0.27091E-01   -0.82642E-03 18048   0.104E-01    0.118E+00
DAV: 119    -0.545628513286E+03   -0.47056E-01   -0.10912E-02 17824   0.108E-01    0.890E-01
DAV: 120    -0.545690788173E+03   -0.62275E-01   -0.47324E-02 17952   0.186E-01    0.909E-01
DAV: 121    -0.545708317702E+03   -0.17530E-01   -0.34526E-02 17376   0.129E-01    0.957E-01
DAV: 122    -0.545705855705E+03    0.24620E-02   -0.23719E-02 16048   0.116E-01    0.834E-01
DAV: 123    -0.545706464263E+03   -0.60856E-03   -0.20442E-02 16288   0.126E-01    0.737E-01
DAV: 124    -0.545697281401E+03    0.91829E-02   -0.96279E-02 16688   0.187E-01    0.693E-01
DAV: 125    -0.545766457217E+03   -0.69176E-01   -0.63704E-03 18064   0.870E-02    0.579E-01
DAV: 126    -0.545865814701E+03   -0.99357E-01   -0.15035E-02 17264   0.133E-01    0.392E-01
DAV: 127    -0.545978165361E+03   -0.11235E+00   -0.18925E-02 18400   0.125E-01    0.233E-01
DAV: 128    -0.546011286663E+03   -0.33121E-01   -0.23893E-02 16928   0.129E-01    0.253E-01
DAV: 129    -0.546036207718E+03   -0.24921E-01   -0.17830E-02 15664   0.762E-02    0.250E-01
DAV: 130    -0.546057493052E+03   -0.21285E-01   -0.11268E-02 15344   0.678E-02    0.243E-01
DAV: 131    -0.546097292954E+03   -0.39800E-01   -0.14899E-02 17344   0.737E-02    0.196E-01
DAV: 132    -0.546116349686E+03   -0.19057E-01   -0.40028E-03 16400   0.474E-02    0.204E-01
DAV: 133    -0.546121485763E+03   -0.51361E-02   -0.28474E-04 13632   0.200E-02    0.201E-01
DAV: 134    -0.546121943774E+03   -0.45801E-03   -0.11870E-04 12544   0.131E-02    0.198E-01
DAV: 135    -0.546123899581E+03   -0.19558E-02   -0.10327E-04 12848   0.148E-02    0.177E-01
DAV: 136    -0.546125591091E+03   -0.16915E-02   -0.91297E-05 12288   0.135E-02    0.146E-01
DAV: 137    -0.546126481931E+03   -0.89084E-03   -0.44557E-05 11280   0.106E-02    0.140E-01
DAV: 138    -0.546126189016E+03    0.29291E-03   -0.11073E-04 12752   0.145E-02    0.112E-01
DAV: 139    -0.546125415682E+03    0.77333E-03   -0.60333E-05 11888   0.108E-02    0.929E-02
DAV: 140    -0.546125358565E+03    0.57117E-04   -0.27658E-05 10816   0.780E-03
   2 F= -.54612536E+03 E0= -.54609052E+03  d E =0.228750E+03  mag=     4.2788
       N       E                     dE             d eps       ncg     rms          rms(c)
DAV:   1    -0.276738074601E+03    0.26939E+03   -0.21221E+04 22352   0.155E+02    0.114E+03
DAV:   2    -0.865683396185E+03   -0.58895E+03   -0.48277E+03 21904   0.724E+01    0.531E+02
DAV:   3    -0.846145269549E+03    0.19538E+02   -0.72782E+02 21648   0.538E+01    0.477E+02
DAV:   4    -0.816484846602E+03    0.29660E+02   -0.24625E+02 21936   0.292E+01    0.370E+02
DAV:   5    -0.126758210128E+04   -0.45110E+03   -0.50933E+02 22912   0.649E+01    0.426E+02
DAV:   6    -0.114649337485E+04    0.12109E+03   -0.21784E+02 19952   0.216E+01    0.178E+02
DAV:   7    -0.842983307979E+03    0.30351E+03   -0.14205E+02 20624   0.205E+01    0.102E+02
DAV:   8    -0.779836797935E+03    0.63147E+02   -0.57279E+01 21104   0.115E+01    0.728E+01
DAV:   9    -0.781650541553E+03   -0.18137E+01   -0.10801E+01 20112   0.530E+00    0.715E+01
DAV:  10    -0.783018399417E+03   -0.13679E+01   -0.71457E+00 22816   0.367E+00    0.638E+01
DAV:  11    -0.777724025986E+03    0.52944E+01   -0.84964E+00 20208   0.380E+00    0.476E+01
DAV:  12    -0.776969383974E+03    0.75464E+00   -0.30693E+00 20432   0.303E+00    0.297E+01
DAV:  13    -0.777334320018E+03   -0.36494E+00   -0.73313E-01 21600   0.175E+00    0.263E+01
DAV:  14    -0.776783978607E+03    0.55034E+00   -0.16790E+00 20512   0.205E+00    0.176E+01
DAV:  15    -0.776779579693E+03    0.43989E-02   -0.20739E-01 18384   0.730E-01    0.157E+01
DAV:  16    -0.777058504554E+03   -0.27892E+00   -0.22268E-01 21760   0.874E-01    0.136E+01
DAV:  17    -0.777350675731E+03   -0.29217E+00   -0.14529E-01 21264   0.808E-01    0.910E+00
DAV:  18    -0.777548680447E+03   -0.19800E+00   -0.31117E-02 19408   0.378E-01    0.859E+00
DAV:  19    -0.777859092894E+03   -0.31041E+00   -0.14502E-02 20960   0.245E-01    0.729E+00
DAV:  20    -0.778190348003E+03   -0.33126E+00   -0.17536E-02 20080   0.277E-01    0.567E+00
DAV:  21    -0.778315918438E+03   -0.12557E+00   -0.44152E-03 18752   0.119E-01    0.474E+00
DAV:  22    -0.778397181060E+03   -0.81263E-01   -0.55882E-03 23024   0.144E-01    0.369E+00
DAV:  23    -0.778632826877E+03   -0.23565E+00   -0.56724E-03 21616   0.161E-01    0.230E+00
DAV:  24    -0.778861308135E+03   -0.22848E+00   -0.55027E-03 21008   0.152E-01    0.109E+00
DAV:  25    -0.779007224398E+03   -0.14592E+00   -0.77872E-03 21024   0.158E-01    0.647E-01
DAV:  26    -0.779084587339E+03   -0.77363E-01   -0.46268E-03 20672   0.124E-01    0.121E+00
DAV:  27    -0.779113522138E+03   -0.28935E-01   -0.22096E-03 19008   0.834E-02    0.166E+00
DAV:  28    -0.779169077662E+03   -0.55556E-01   -0.58557E-04 18096   0.466E-02    0.155E+00
DAV:  29    -0.779512051494E+03   -0.34297E+00   -0.14907E-02 18448   0.151E-01    0.164E+00
DAV:  30    -0.779537857809E+03   -0.25806E-01   -0.96468E-04 19136   0.510E-02    0.179E+00
DAV:  31    -0.779538060365E+03   -0.20256E-03   -0.77032E-05 11840   0.183E-02    0.183E+00
DAV:  32    -0.779653592103E+03   -0.11553E+00   -0.21332E-03 18240   0.895E-02    0.136E+00
DAV:  33    -0.779780560040E+03   -0.12697E+00   -0.51289E-03 21712   0.130E-01    0.525E-01
DAV:  34    -0.779789575813E+03   -0.90158E-02   -0.24940E-03 21984   0.961E-02    0.686E-01
DAV:  35    -0.779788060847E+03    0.15150E-02   -0.93395E-04 20880   0.541E-02    0.965E-01
DAV:  36    -0.779790619237E+03   -0.25584E-02   -0.20490E-04 14272   0.305E-02    0.891E-01
DAV:  37    -0.779853977202E+03   -0.63358E-01   -0.38660E-04 13952   0.401E-02    0.664E-01
DAV:  38    -0.779902523518E+03   -0.48546E-01   -0.51947E-04 17216   0.516E-02    0.696E-01
DAV:  39    -0.779901246210E+03    0.12773E-02   -0.22340E-04 12896   0.383E-02    0.326E-01
DAV:  40    -0.779891491504E+03    0.97547E-02   -0.51330E-04 17760   0.392E-02    0.167E-01
DAV:  41    -0.779886370323E+03    0.51212E-02   -0.58383E-05 12000   0.154E-02    0.942E-02
DAV:  42    -0.779886163943E+03    0.20638E-03   -0.26163E-05 11280   0.117E-02    0.721E-02
DAV:  43    -0.779885213605E+03    0.95034E-03   -0.18576E-05 11280   0.764E-03    0.606E-02
DAV:  44    -0.779885793489E+03   -0.57988E-03   -0.80095E-06 10912   0.626E-03    0.339E-02
DAV:  45    -0.779887856202E+03   -0.20627E-02   -0.79331E-06 10816   0.444E-03    0.259E-02
DAV:  46    -0.779893702645E+03   -0.58464E-02   -0.18681E-05 11120   0.959E-03    0.614E-02
DAV:  47    -0.779899355359E+03   -0.56527E-02   -0.13476E-05 10560   0.103E-02    0.366E-02
DAV:  48    -0.779909598275E+03   -0.10243E-01   -0.48407E-05 11168   0.166E-02    0.355E-02
DAV:  49    -0.779915626314E+03   -0.60280E-02   -0.24851E-05 10672   0.132E-02    0.302E-02
DAV:  50    -0.779919185145E+03   -0.35588E-02   -0.11191E-05 10464   0.979E-03    0.163E-02
DAV:  51    -0.779920532473E+03   -0.13473E-02   -0.71876E-06 10880   0.716E-03    0.129E-02
DAV:  52    -0.779920852500E+03   -0.32003E-03   -0.26972E-06 10384   0.460E-03    0.671E-03
DAV:  53    -0.779921138294E+03   -0.28579E-03   -0.27092E-06 10608   0.362E-03    0.746E-03
DAV:  54    -0.779921267977E+03   -0.12968E-03   -0.19552E-06 10560   0.281E-03    0.450E-03
DAV:  55    -0.779921324660E+03   -0.56683E-04   -0.13654E-06 10448   0.194E-03
   3 F= -.77992132E+03 E0= -.77988666E+03  d E =-.504620E+01  mag=    -0.0013
       N       E                     dE             d eps       ncg     rms          rms(c)
DAV:   1    -0.783629564242E+03   -0.37083E+01   -0.67936E+02 16512   0.368E+01    0.323E+01
DAV:   2    -0.790686926611E+03   -0.70574E+01   -0.67867E+01 19632   0.102E+01    0.313E+01
DAV:   3    -0.790908917015E+03   -0.22199E+00   -0.12923E+01 21264   0.645E+00    0.199E+01
DAV:   4    -0.791169575618E+03   -0.26066E+00   -0.10676E+01 24016   0.597E+00    0.273E+01
DAV:   5    -0.790374434583E+03    0.79514E+00   -0.96002E+00 23680   0.384E+00    0.205E+01
DAV:   6    -0.789009996220E+03    0.13644E+01   -0.42341E+00 23216   0.304E+00    0.433E+00
DAV:   7    -0.788992070870E+03    0.17925E-01   -0.40294E-01 22144   0.135E+00    0.300E+00
DAV:   8    -0.788973949541E+03    0.18121E-01   -0.10275E-01 19840   0.621E-01    0.218E+00
DAV:   9    -0.788972140005E+03    0.18095E-02   -0.14870E-02 20688   0.253E-01    0.175E+00
DAV:  10    -0.788970489844E+03    0.16502E-02   -0.13281E-02 21376   0.237E-01    0.110E+00
DAV:  11    -0.788967046126E+03    0.34437E-02   -0.91360E-03 22976   0.230E-01    0.298E-01
DAV:  12    -0.788967143019E+03   -0.96893E-04   -0.18953E-03 19632   0.956E-02    0.175E-01
DAV:  13    -0.788967113394E+03    0.29625E-04   -0.24674E-04 13728   0.451E-02
   4 F= -.78896711E+03 E0= -.78892837E+03  d E =-.140920E+02  mag=    -0.0010
       N       E                     dE             d eps       ncg     rms          rms(c)
DAV:   1    -0.763825792999E+03    0.25141E+02   -0.23784E+03 16592   0.684E+01    0.109E+02
DAV:   2    -0.794585096629E+03   -0.30759E+02   -0.32710E+02 18272   0.193E+01    0.385E+01
DAV:   3    -0.799915887413E+03   -0.53308E+01   -0.32109E+01 21936   0.119E+01    0.339E+01
DAV:   4    -0.793810154084E+03    0.61057E+01   -0.14868E+01 23760   0.904E+00    0.278E+01
DAV:   5    -0.793261992715E+03    0.54816E+00   -0.56518E+00 23216   0.381E+00    0.214E+01
DAV:   6    -0.792345597332E+03    0.91640E+00   -0.21299E+00 21968   0.265E+00    0.863E+00
DAV:   7    -0.792297520196E+03    0.48077E-01   -0.64718E-01 23600   0.173E+00    0.502E+00
DAV:   8    -0.792266932108E+03    0.30588E-01   -0.37537E-01 22496   0.110E+00    0.306E+00
DAV:   9    -0.792240878726E+03    0.26053E-01   -0.80913E-02 21776   0.565E-01    0.137E+00
DAV:  10    -0.792235961040E+03    0.49177E-02   -0.21214E-02 22528   0.311E-01    0.597E-01
DAV:  11    -0.792235489847E+03    0.47119E-03   -0.90518E-03 22032   0.197E-01    0.484E-01
DAV:  12    -0.792234599754E+03    0.89009E-03   -0.18662E-03 19344   0.103E-01    0.153E-01
DAV:  13    -0.792234536475E+03    0.63280E-04   -0.32488E-04 15536   0.407E-02
   5 F= -.79223454E+03 E0= -.79219561E+03  d E =-.173594E+02  mag=    -0.0008
       N       E                     dE             d eps       ncg     rms          rms(c)
DAV:   1    -0.789466461806E+03    0.27681E+01   -0.57241E+02 16560   0.333E+01    0.223E+01
DAV:   2    -0.797245669550E+03   -0.77792E+01   -0.61007E+01 19056   0.101E+01    0.308E+01
DAV:   3    -0.794147416296E+03    0.30983E+01   -0.93244E+00 20384   0.594E+00    0.157E+01
DAV:   4    -0.794695764263E+03   -0.54835E+00   -0.39089E+00 21312   0.357E+00    0.180E+01
DAV:   5    -0.794147322956E+03    0.54844E+00   -0.12338E+00 22000   0.185E+00    0.136E+01
DAV:   6    -0.793864064630E+03    0.28326E+00   -0.13134E+00 22576   0.201E+00    0.763E+00
DAV:   7    -0.793827166261E+03    0.36898E-01   -0.26973E-01 19792   0.949E-01    0.373E+00
DAV:   8    -0.793816726648E+03    0.10440E-01   -0.82318E-02 21392   0.557E-01    0.269E+00
DAV:   9    -0.793814855198E+03    0.18714E-02   -0.52356E-02 22944   0.429E-01    0.161E+00
DAV:  10    -0.793814879992E+03   -0.24794E-04   -0.22084E-02 21408   0.281E-01    0.107E+00
DAV:  11    -0.793809839778E+03    0.50402E-02   -0.56137E-03 21440   0.158E-01    0.646E-01
DAV:  12    -0.793808040274E+03    0.17995E-02   -0.48032E-03 22144   0.124E-01    0.280E-01
DAV:  13    -0.793808421494E+03   -0.38122E-03   -0.94335E-04 17840   0.574E-02    0.239E-01
DAV:  14    -0.793808605523E+03   -0.18403E-03   -0.24991E-04 11040   0.329E-02    0.181E-01
DAV:  15    -0.793808767693E+03   -0.16217E-03   -0.11801E-04 11056   0.284E-02    0.140E-01
DAV:  16    -0.793808789574E+03   -0.21881E-04   -0.10235E-04 10864   0.207E-02
   6 F= -.79380879E+03 E0= -.79377024E+03  d E =-.189337E+02  mag=    -0.0006
       N       E                     dE             d eps       ncg     rms          rms(c)
DAV:   1    -0.793927192534E+03   -0.11842E+00   -0.34995E+01 16544   0.829E+00    0.376E+00
DAV:   2    -0.794255949099E+03   -0.32876E+00   -0.28976E+00 19168   0.224E+00    0.586E+00
DAV:   3    -0.794129764776E+03    0.12618E+00   -0.35484E-01 20352   0.112E+00    0.209E+00
DAV:   4    -0.794165923777E+03   -0.36159E-01   -0.17962E-01 20448   0.659E-01    0.325E+00
DAV:   5    -0.794153010163E+03    0.12914E-01   -0.11434E-01 23824   0.600E-01    0.259E+00
DAV:   6    -0.794126328924E+03    0.26681E-01   -0.65623E-02 21664   0.430E-01    0.578E-01
DAV:   7    -0.794127356236E+03   -0.10273E-02   -0.99968E-03 21184   0.184E-01    0.438E-01
DAV:   8    -0.794126854605E+03    0.50163E-03   -0.17024E-03 18800   0.825E-02    0.235E-01
DAV:   9    -0.794126813995E+03    0.40610E-04   -0.21932E-04 10688   0.295E-02
   7 F= -.79412681E+03 E0= -.79408814E+03  d E =-.192517E+02  mag=    -0.0005
       N       E                     dE             d eps       ncg     rms          rms(c)
DAV:   1    -0.794128182698E+03   -0.13281E-02   -0.27912E+00 16672   0.235E+00    0.100E+00
DAV:   2    -0.794156606068E+03   -0.28423E-01   -0.23928E-01 19440   0.657E-01    0.187E+00
DAV:   3    -0.794143125042E+03    0.13481E-01   -0.33417E-02 19472   0.306E-01    0.676E-01
DAV:   4    -0.794146842551E+03   -0.37175E-02   -0.10859E-02 19792   0.165E-01    0.100E+00
DAV:   5    -0.794145543254E+03    0.12993E-02   -0.10035E-02 20672   0.164E-01    0.776E-01
DAV:   6    -0.794143574971E+03    0.19683E-02   -0.59772E-03 21296   0.130E-01    0.242E-01
DAV:   7    -0.794143478924E+03    0.96047E-04   -0.10289E-03 17744   0.618E-02    0.121E-01
DAV:   8    -0.794143472120E+03    0.68036E-05   -0.12652E-04 10544   0.227E-02
   8 F= -.79414347E+03 E0= -.79410487E+03  d E =-.192683E+02  mag=    -0.0004
       N       E                     dE             d eps       ncg     rms          rms(c)
DAV:   1    -0.775597922277E+03    0.18546E+02   -0.33933E+03 17648   0.104E+02    0.603E+01
DAV:   2    -0.797943264120E+03   -0.22345E+02   -0.24810E+02 18784   0.214E+01    0.274E+01
DAV:   3    -0.801337555323E+03   -0.33943E+01   -0.18365E+01 22400   0.806E+00    0.363E+01
DAV:   4    -0.798549108356E+03    0.27884E+01   -0.19906E+01 23072   0.615E+00    0.240E+01
DAV:   5    -0.798326425499E+03    0.22268E+00   -0.39939E+00 22800   0.377E+00    0.163E+01
DAV:   6    -0.797918099771E+03    0.40833E+00   -0.42396E+00 23072   0.411E+00    0.100E+01
DAV:   7    -0.797474115468E+03    0.44398E+00   -0.11994E+00 21600   0.215E+00    0.519E+00
DAV:   8    -0.797548222917E+03   -0.74107E-01   -0.88014E-01 22720   0.142E+00    0.646E+00
DAV:   9    -0.797426972028E+03    0.12125E+00   -0.74155E-01 23904   0.131E+00    0.336E+00
DAV:  10    -0.797382080668E+03    0.44891E-01   -0.12192E-01 22336   0.655E-01    0.187E+00
DAV:  11    -0.797372832465E+03    0.92482E-02   -0.26120E-02 22560   0.313E-01    0.109E+00
DAV:  12    -0.797371551183E+03    0.12813E-02   -0.41402E-03 19872   0.132E-01    0.660E-01
DAV:  13    -0.797371025500E+03    0.52568E-03   -0.18127E-03 21888   0.913E-02    0.276E-01
DAV:  14    -0.797371074491E+03   -0.48991E-04   -0.62140E-04 19184   0.652E-02
   9 F= -.79737107E+03 E0= -.79733295E+03  d E =-.322760E+01  mag=    -0.0002
       N       E                     dE             d eps       ncg     rms          rms(c)
DAV:   1    -0.796438977288E+03    0.93205E+00   -0.39817E+02 16640   0.362E+01    0.152E+01
DAV:   2    -0.798269733668E+03   -0.18308E+01   -0.20364E+01 20112   0.679E+00    0.944E+00
DAV:   3    -0.798456730956E+03   -0.18700E+00   -0.20132E+00 21568   0.273E+00    0.866E+00
DAV:   4    -0.798293164328E+03    0.16357E+00   -0.17718E+00 22592   0.216E+00    0.732E+00
DAV:   5    -0.798235546671E+03    0.57618E-01   -0.93945E-01 22464   0.139E+00    0.417E+00
DAV:   6    -0.798142354982E+03    0.93192E-01   -0.41543E-01 22432   0.125E+00    0.209E+00
DAV:   7    -0.798119851318E+03    0.22504E-01   -0.71222E-02 20384   0.518E-01    0.793E-01
DAV:   8    -0.798120287595E+03   -0.43628E-03   -0.13247E-02 21616   0.216E-01    0.706E-01
DAV:   9    -0.798120295382E+03   -0.77871E-05   -0.77669E-03 22080   0.148E-01    0.654E-01
DAV:  10    -0.798120191852E+03    0.10353E-03   -0.47780E-03 22240   0.133E-01    0.431E-01
DAV:  11    -0.798119734646E+03    0.45721E-03   -0.25868E-03 21136   0.862E-02    0.154E-01
DAV:  12    -0.798119862981E+03   -0.12833E-03   -0.28956E-04 15872   0.361E-02    0.945E-02
DAV:  13    -0.798120042257E+03   -0.17928E-03   -0.38427E-05 10880   0.153E-02    0.632E-02
DAV:  14    -0.798120264339E+03   -0.22208E-03   -0.39364E-05 11168   0.124E-02    0.425E-02
DAV:  15    -0.798120401424E+03   -0.13708E-03   -0.25703E-05 11120   0.109E-02    0.183E-02
DAV:  16    -0.798120607485E+03   -0.20606E-03   -0.10418E-05 11344   0.585E-03    0.140E-02
DAV:  17    -0.798120796441E+03   -0.18896E-03   -0.71016E-06 11264   0.459E-03    0.121E-02
DAV:  18    -0.798121001245E+03   -0.20480E-03   -0.87276E-06 11424   0.413E-03    0.919E-03
DAV:  19    -0.798121198575E+03   -0.19733E-03   -0.11499E-05 11456   0.466E-03    0.873E-03
DAV:  20    -0.798121266217E+03   -0.67641E-04   -0.25833E-05 11792   0.597E-03
  10 F= -.79812127E+03 E0= -.79808186E+03  d E =-.397779E+01  mag=    -0.0000
       N       E                     dE             d eps       ncg     rms          rms(c)
DAV:   1    -0.794171012659E+03    0.39502E+01   -0.58318E+02 16608   0.418E+01    0.247E+01
DAV:   2    -0.799140056350E+03   -0.49690E+01   -0.57603E+01 19056   0.103E+01    0.135E+01
DAV:   3    -0.799168010593E+03   -0.27954E-01   -0.25934E+00 22400   0.344E+00    0.114E+01
DAV:   4    -0.799012753627E+03    0.15526E+00   -0.56426E-01 21952   0.162E+00    0.936E+00
DAV:   5    -0.799142944799E+03   -0.13019E+00   -0.57394E-01 26032   0.129E+00    0.802E+00
DAV:   6    -0.799025857463E+03    0.11709E+00   -0.58015E-01 24048   0.138E+00    0.350E+00
DAV:   7    -0.799013537495E+03    0.12320E-01   -0.33616E-01 22496   0.107E+00    0.208E+00
DAV:   8    -0.798992320460E+03    0.21217E-01   -0.56695E-02 21184   0.503E-01    0.881E-01
DAV:   9    -0.798989802288E+03    0.25182E-02   -0.65024E-03 21632   0.176E-01    0.503E-01
DAV:  10    -0.798989839950E+03   -0.37663E-04   -0.22715E-03 21952   0.886E-02    0.440E-01
DAV:  11    -0.798989714404E+03    0.12555E-03   -0.16647E-03 19936   0.785E-02    0.304E-01
DAV:  12    -0.798989438181E+03    0.27622E-03   -0.73843E-04 13856   0.515E-02    0.983E-02
DAV:  13    -0.798989461728E+03   -0.23547E-04   -0.78939E-05 10720   0.246E-02
  11 F= -.79898946E+03 E0= -.79895421E+03  d E =-.868196E+00  mag=    -0.0000
       N       E                     dE             d eps       ncg     rms          rms(c)
DAV:   1    -0.798905423416E+03    0.84015E-01   -0.20446E+01 16608   0.788E+00    0.291E+00
DAV:   2    -0.799042552240E+03   -0.13713E+00   -0.16171E+00 18128   0.183E+00    0.201E+00
DAV:   3    -0.799048738458E+03   -0.61862E-02   -0.11122E-01 22560   0.685E-01    0.177E+00
DAV:   4    -0.799042513148E+03    0.62253E-02   -0.77835E-02 23072   0.490E-01    0.152E+00
DAV:   5    -0.799039571732E+03    0.29414E-02   -0.34550E-02 22544   0.294E-01    0.989E-01
DAV:   6    -0.799036628564E+03    0.29432E-02   -0.14782E-02 20304   0.212E-01    0.345E-01
DAV:   7    -0.799036554151E+03    0.74412E-04   -0.39493E-03 22624   0.129E-01    0.254E-01
DAV:   8    -0.799036248386E+03    0.30577E-03   -0.11167E-03 17232   0.623E-02    0.117E-01
DAV:   9    -0.799036253923E+03   -0.55369E-05   -0.70198E-05 10720   0.202E-02
  12 F= -.79903625E+03 E0= -.79899987E+03  d E =-.914988E+00  mag=    -0.0000
       N       E                     dE             d eps       ncg     rms          rms(c)
DAV:   1    -0.798666607133E+03    0.36964E+00   -0.16899E+02 16544   0.241E+01    0.912E+00
DAV:   2    -0.799367684443E+03   -0.70108E+00   -0.74805E+00 19040   0.412E+00    0.647E+00
DAV:   3    -0.799492165182E+03   -0.12448E+00   -0.11155E+00 22064   0.195E+00    0.629E+00
DAV:   4    -0.799399602061E+03    0.92563E-01   -0.13160E+00 24816   0.185E+00    0.549E+00
DAV:   5    -0.799332185881E+03    0.67416E-01   -0.36089E-01 24336   0.108E+00    0.320E+00
DAV:   6    -0.799294432091E+03    0.37754E-01   -0.19910E-01 21248   0.694E-01    0.114E+00
DAV:   7    -0.799295791022E+03   -0.13589E-02   -0.50828E-02 22160   0.381E-01    0.103E+00
DAV:   8    -0.799289622852E+03    0.61682E-02   -0.15869E-02 21104   0.237E-01    0.301E-01
DAV:   9    -0.799289565059E+03    0.57792E-04   -0.12471E-03 19472   0.899E-02    0.235E-01
DAV:  10    -0.799289497337E+03    0.67723E-04   -0.34615E-04 13120   0.442E-02
  13 F= -.79928950E+03 E0= -.79925561E+03  d E =-.253243E+00  mag=    -0.0000
       N       E                     dE             d eps       ncg     rms          rms(c)
DAV:   1    -0.799284400548E+03    0.51645E-02   -0.33309E+00 16608   0.340E+00    0.130E+00
DAV:   2    -0.799298076504E+03   -0.13676E-01   -0.14492E-01 18816   0.566E-01    0.106E+00
DAV:   3    -0.799299622868E+03   -0.15464E-02   -0.24695E-02 21952   0.283E-01    0.889E-01
DAV:   4    -0.799298640126E+03    0.98274E-03   -0.22668E-02 23600   0.271E-01    0.878E-01
DAV:   5    -0.799296759404E+03    0.18807E-02   -0.11809E-02 22016   0.170E-01    0.488E-01
DAV:   6    -0.799296122977E+03    0.63643E-03   -0.40469E-03 20080   0.102E-01    0.186E-01
DAV:   7    -0.799296072714E+03    0.50263E-04   -0.75293E-04 15712   0.567E-02
  14 F= -.79929607E+03 E0= -.79926172E+03  d E =-.259819E+00  mag=    -0.0000
       N       E                     dE             d eps       ncg     rms          rms(c)
DAV:   1    -0.799182729693E+03    0.11339E+00   -0.38005E+01 16576   0.113E+01    0.271E+00
DAV:   2    -0.799386488823E+03   -0.20376E+00   -0.22887E+00 18224   0.211E+00    0.187E+00
DAV:   3    -0.799387473326E+03   -0.98450E-03   -0.64206E-02 21504   0.488E-01    0.125E+00
DAV:   4    -0.799388752445E+03   -0.12791E-02   -0.34751E-02 22624   0.328E-01    0.133E+00
DAV:   5    -0.799388412731E+03    0.33971E-03   -0.30077E-02 22160   0.291E-01    0.105E+00
DAV:   6    -0.799384961416E+03    0.34513E-02   -0.18457E-02 21920   0.245E-01    0.320E-01
DAV:   7    -0.799384968192E+03   -0.67765E-05   -0.24958E-03 19840   0.981E-02    0.179E-01
DAV:   8    -0.799384867173E+03    0.10102E-03   -0.43592E-04 14032   0.421E-02    0.111E-01
DAV:   9    -0.799384836924E+03    0.30249E-04   -0.12448E-04 10512   0.300E-02
  15 F= -.79938484E+03 E0= -.79934972E+03  d E =-.887642E-01  mag=    -0.0000
       N       E                     dE             d eps       ncg     rms          rms(c)
DAV:   1    -0.799203643506E+03    0.18122E+00   -0.41864E+01 16608   0.118E+01    0.284E+00
DAV:   2    -0.799427985433E+03   -0.22434E+00   -0.25218E+00 18016   0.221E+00    0.195E+00
DAV:   3    -0.799428957254E+03   -0.97182E-03   -0.69919E-02 21472   0.502E-01    0.122E+00
DAV:   4    -0.799431338991E+03   -0.23817E-02   -0.39957E-02 22624   0.355E-01    0.140E+00
DAV:   5    -0.799428469758E+03    0.28692E-02   -0.25181E-02 21232   0.265E-01    0.865E-01
DAV:   6    -0.799427287040E+03    0.11827E-02   -0.17890E-02 21728   0.230E-01    0.501E-01
DAV:   7    -0.799426618569E+03    0.66847E-03   -0.47128E-03 20832   0.130E-01    0.265E-01
DAV:   8    -0.799426385085E+03    0.23348E-03   -0.78231E-04 15968   0.598E-02    0.113E-01
DAV:   9    -0.799426354118E+03    0.30967E-04   -0.11500E-04 11584   0.302E-02
  16 F= -.79942635E+03 E0= -.79939044E+03  d E =-.130281E+00  mag=    -0.0000
       N       E                     dE             d eps       ncg     rms          rms(c)
DAV:   1    -0.799447335067E+03   -0.20950E-01   -0.10690E+01 16576   0.653E+00    0.133E+00
DAV:   2    -0.799491216295E+03   -0.43881E-01   -0.45511E-01 18144   0.106E+00    0.128E+00
DAV:   3    -0.799489392182E+03    0.18241E-02   -0.49361E-02 21440   0.371E-01    0.958E-01
DAV:   4    -0.799485415488E+03    0.39767E-02   -0.21100E-02 20992   0.238E-01    0.587E-01
DAV:   5    -0.799486216718E+03   -0.80123E-03   -0.58148E-03 21280   0.131E-01    0.571E-01
DAV:   6    -0.799485360095E+03    0.85662E-03   -0.38757E-03 20544   0.129E-01    0.244E-01
DAV:   7    -0.799485277413E+03    0.82682E-04   -0.13938E-03 17856   0.735E-02    0.108E-01
DAV:   8    -0.799485208146E+03    0.69268E-04   -0.20327E-04 10880   0.322E-02
  17 F= -.79948521E+03 E0= -.79944915E+03  d E =-.588540E-01  mag=    -0.0000
       N       E                     dE             d eps       ncg     rms          rms(c)
DAV:   1    -0.799378870787E+03    0.10641E+00   -0.55512E+01 16544   0.149E+01    0.293E+00
DAV:   2    -0.799606917400E+03   -0.22805E+00   -0.23733E+00 18272   0.243E+00    0.282E+00
DAV:   3    -0.799597008574E+03    0.99088E-02   -0.24144E-01 21536   0.821E-01    0.206E+00
DAV:   4    -0.799579180970E+03    0.17828E-01   -0.97494E-02 20960   0.515E-01    0.134E+00
DAV:   5    -0.799582094942E+03   -0.29140E-02   -0.29452E-02 21984   0.285E-01    0.127E+00
DAV:   6    -0.799577490601E+03    0.46043E-02   -0.19393E-02 21024   0.290E-01    0.571E-01
DAV:   7    -0.799576946692E+03    0.54391E-03   -0.75546E-03 21120   0.171E-01    0.259E-01
DAV:   8    -0.799576587220E+03    0.35947E-03   -0.13196E-03 19488   0.754E-02    0.117E-01
DAV:   9    -0.799576554419E+03    0.32801E-04   -0.13831E-04 13088   0.328E-02
  18 F= -.79957655E+03 E0= -.79954022E+03  d E =-.150200E+00  mag=    -0.0000
       N       E                     dE             d eps       ncg     rms          rms(c)
DAV:   1    -0.798774577880E+03    0.80201E+00   -0.22193E+02 16512   0.297E+01    0.563E+00
DAV:   2    -0.799717461848E+03   -0.94288E+00   -0.97579E+00 18512   0.498E+00    0.570E+00
DAV:   3    -0.799658147079E+03    0.59315E-01   -0.10367E+00 21216   0.166E+00    0.392E+00
DAV:   4    -0.799599437319E+03    0.58710E-01   -0.33517E-01 20768   0.967E-01    0.266E+00
DAV:   5    -0.799605850312E+03   -0.64130E-02   -0.11017E-01 22112   0.518E-01    0.248E+00
DAV:   6    -0.799589162408E+03    0.16688E-01   -0.73320E-02 20672   0.567E-01    0.121E+00
DAV:   7    -0.799587001375E+03    0.21610E-02   -0.34614E-02 21920   0.357E-01    0.570E-01
DAV:   8    -0.799585379570E+03    0.16218E-02   -0.66602E-03 20768   0.163E-01    0.252E-01
DAV:   9    -0.799585118523E+03    0.26105E-03   -0.75325E-04 19584   0.702E-02    0.169E-01
DAV:  10    -0.799585071152E+03    0.47371E-04   -0.25848E-04 13472   0.362E-02
  19 F= -.79958507E+03 E0= -.79954807E+03  d E =-.158717E+00  mag=    -0.0000
       N       E                     dE             d eps       ncg     rms          rms(c)
DAV:   1    -0.799431666412E+03    0.15345E+00   -0.50235E+01 16512   0.142E+01    0.307E+00
DAV:   2    -0.799635055518E+03   -0.20339E+00   -0.21214E+00 18080   0.228E+00    0.263E+00
DAV:   3    -0.799634359172E+03    0.69635E-03   -0.21001E-01 21824   0.843E-01    0.211E+00
DAV:   4    -0.799612115318E+03    0.22244E-01   -0.93821E-02 21104   0.504E-01    0.118E+00
DAV:   5    -0.799615433912E+03   -0.33186E-02   -0.28595E-02 21664   0.283E-01    0.126E+00
DAV:   6    -0.799610241613E+03    0.51923E-02   -0.19668E-02 20880   0.268E-01    0.478E-01
DAV:   7    -0.799610005818E+03    0.23579E-03   -0.50539E-03 20896   0.140E-01    0.212E-01
DAV:   8    -0.799609800109E+03    0.20571E-03   -0.94103E-04 18112   0.626E-02    0.105E-01
DAV:   9    -0.799609778102E+03    0.22007E-04   -0.11912E-04 12800   0.314E-02
  20 F= -.79960978E+03 E0= -.79957301E+03  d E =-.183424E+00  mag=     0.0000
       N       E                     dE             d eps       ncg     rms          rms(c)
DAV:   1    -0.799494671213E+03    0.11513E+00   -0.32121E+01 16512   0.105E+01    0.233E+00
DAV:   2    -0.799648251736E+03   -0.15358E+00   -0.16948E+00 17728   0.190E+00    0.170E+00
DAV:   3    -0.799648485698E+03   -0.23396E-03   -0.62106E-02 20864   0.480E-01    0.126E+00
DAV:   4    -0.799644228830E+03    0.42569E-02   -0.21058E-02 20896   0.277E-01    0.918E-01
DAV:   5    -0.799646121480E+03   -0.18927E-02   -0.11052E-02 20480   0.198E-01    0.691E-01
DAV:   6    -0.799644542303E+03    0.15792E-02   -0.99403E-03 22048   0.186E-01    0.260E-01
DAV:   7    -0.799644204180E+03    0.33812E-03   -0.13864E-03 18624   0.728E-02    0.731E-02
DAV:   8    -0.799644218013E+03   -0.13833E-04   -0.18452E-04 10976   0.312E-02
  21 F= -.79964422E+03 E0= -.79960727E+03  d E =-.344399E-01  mag=     0.0000
       N       E                     dE             d eps       ncg     rms          rms(c)
DAV:   1    -0.799562940689E+03    0.81263E-01   -0.19622E+01 16512   0.824E+00    0.182E+00
DAV:   2    -0.799656025181E+03   -0.93084E-01   -0.10320E+00 17216   0.147E+00    0.134E+00
DAV:   3    -0.799656557276E+03   -0.53210E-03   -0.33766E-02 20992   0.372E-01    0.975E-01
DAV:   4    -0.799655272105E+03    0.12852E-02   -0.13935E-02 21664   0.238E-01    0.860E-01
DAV:   5    -0.799656717706E+03   -0.14456E-02   -0.11424E-02 21728   0.201E-01    0.749E-01
DAV:   6    -0.799654666078E+03    0.20516E-02   -0.10762E-02 20656   0.177E-01    0.263E-01
DAV:   7    -0.799654719830E+03   -0.53753E-04   -0.21547E-03 19360   0.792E-02    0.184E-01
DAV:   8    -0.799654504964E+03    0.21487E-03   -0.58411E-04 12544   0.438E-02    0.699E-02
DAV:   9    -0.799654500655E+03    0.43092E-05   -0.60764E-05 10240   0.208E-02
  22 F= -.79965450E+03 E0= -.79961723E+03  d E =-.447226E-01  mag=     0.0000
       N       E                     dE             d eps       ncg     rms          rms(c)
DAV:   1    -0.799630621011E+03    0.23884E-01   -0.83695E+00 16576   0.554E+00    0.125E+00
DAV:   2    -0.799673184664E+03   -0.42564E-01   -0.47142E-01 17856   0.100E+00    0.118E+00
DAV:   3    -0.799672600459E+03    0.58421E-03   -0.36941E-02 21856   0.340E-01    0.887E-01
DAV:   4    -0.799671777766E+03    0.82269E-03   -0.26200E-02 22528   0.247E-01    0.837E-01
DAV:   5    -0.799671786856E+03   -0.90905E-05   -0.80256E-03 21792   0.157E-01    0.638E-01
DAV:   6    -0.799670667131E+03    0.11197E-02   -0.58186E-03 20832   0.142E-01    0.251E-01
DAV:   7    -0.799670599880E+03    0.67251E-04   -0.13253E-03 19296   0.689E-02    0.126E-01
DAV:   8    -0.799670540142E+03    0.59738E-04   -0.31913E-04 11520   0.318E-02
  23 F= -.79967054E+03 E0= -.79963307E+03  d E =-.160395E-01  mag=     0.0000
       N       E                     dE             d eps       ncg     rms          rms(c)
DAV:   1    -0.799663328043E+03    0.72718E-02   -0.21021E+00 16576   0.277E+00    0.635E-01
DAV:   2    -0.799673611202E+03   -0.10283E-01   -0.11716E-01 17792   0.499E-01    0.537E-01
DAV:   3    -0.799673685100E+03   -0.73898E-04   -0.68340E-03 21536   0.148E-01    0.391E-01
DAV:   4    -0.799673764690E+03   -0.79590E-04   -0.60028E-03 20608   0.117E-01    0.442E-01
DAV:   5    -0.799673686244E+03    0.78446E-04   -0.20964E-03 14560   0.777E-02    0.303E-01
DAV:   6    -0.799673426637E+03    0.25961E-03   -0.14993E-03 15168   0.733E-02    0.128E-01
DAV:   7    -0.799673407535E+03    0.19102E-04   -0.27160E-04 11072   0.361E-02
  24 F= -.79967341E+03 E0= -.79963573E+03  d E =-.189069E-01  mag=     0.0000
       N       E                     dE             d eps       ncg     rms          rms(c)
DAV:   1    -0.799669063785E+03    0.43629E-02   -0.75003E+00 16576   0.545E+00    0.908E-01
DAV:   2    -0.799690417868E+03   -0.21354E-01   -0.23775E-01 17792   0.770E-01    0.636E-01
DAV:   3    -0.799690272446E+03    0.14542E-03   -0.94904E-03 21280   0.207E-01    0.499E-01
DAV:   4    -0.799689892030E+03    0.38042E-03   -0.56915E-03 20480   0.156E-01    0.423E-01
DAV:   5    -0.799691100794E+03   -0.12088E-02   -0.40753E-03 19536   0.108E-01    0.388E-01
DAV:   6    -0.799690540528E+03    0.56027E-03   -0.30722E-03 18080   0.941E-02    0.149E-01
DAV:   7    -0.799690525357E+03    0.15171E-04   -0.49369E-04 13504   0.424E-02
  25 F= -.79969053E+03 E0= -.79965274E+03  d E =-.171178E-01  mag=     0.0000
       N       E                     dE             d eps       ncg     rms          rms(c)
DAV:   1    -0.799526524468E+03    0.16402E+00   -0.67507E+01 16512   0.163E+01    0.266E+00
DAV:   2    -0.799723476216E+03   -0.19695E+00   -0.21633E+00 18144   0.233E+00    0.188E+00
DAV:   3    -0.799721932708E+03    0.15435E-02   -0.98685E-02 21184   0.616E-01    0.146E+00
DAV:   4    -0.799717877808E+03    0.40549E-02   -0.58691E-02 22304   0.448E-01    0.127E+00
DAV:   5    -0.799726040133E+03   -0.81623E-02   -0.38976E-02 20640   0.317E-01    0.118E+00
DAV:   6    -0.799721903730E+03    0.41364E-02   -0.32558E-02 21520   0.295E-01    0.468E-01
DAV:   7    -0.799721547394E+03    0.35634E-03   -0.45821E-03 19840   0.128E-01    0.260E-01
DAV:   8    -0.799721222413E+03    0.32498E-03   -0.11538E-03 17984   0.620E-02    0.125E-01
DAV:   9    -0.799721185531E+03    0.36882E-04   -0.14756E-04 11584   0.292E-02
  26 F= -.79972119E+03 E0= -.79968333E+03  d E =-.477780E-01  mag=     0.0000
       N       E                     dE             d eps       ncg     rms          rms(c)
DAV:   1    -0.799692561072E+03    0.28661E-01   -0.11246E+01 16512   0.667E+00    0.111E+00
DAV:   2    -0.799724627169E+03   -0.32066E-01   -0.35809E-01 18112   0.942E-01    0.744E-01
DAV:   3    -0.799724449075E+03    0.17809E-03   -0.15904E-02 20864   0.248E-01    0.591E-01
DAV:   4    -0.799723904980E+03    0.54410E-03   -0.95835E-03 21280   0.184E-01    0.499E-01
DAV:   5    -0.799725663089E+03   -0.17581E-02   -0.62993E-03 20576   0.129E-01    0.460E-01
DAV:   6    -0.799724939087E+03    0.72400E-03   -0.48841E-03 19296   0.113E-01    0.181E-01
DAV:   7    -0.799724900777E+03    0.38311E-04   -0.69346E-04 15264   0.495E-02
  27 F= -.79972490E+03 E0= -.79968690E+03  d E =-.514932E-01  mag=     0.0000
       N       E                     dE             d eps       ncg     rms          rms(c)
DAV:   1    -0.799706325803E+03    0.18613E-01   -0.65321E+00 16512   0.524E+00    0.106E+00
DAV:   2    -0.799737816596E+03   -0.31491E-01   -0.35318E-01 17664   0.938E-01    0.917E-01
DAV:   3    -0.799737358544E+03    0.45805E-03   -0.21683E-02 21120   0.295E-01    0.676E-01
DAV:   4    -0.799735411144E+03    0.19474E-02   -0.81479E-03 20704   0.171E-01    0.456E-01
DAV:   5    -0.799736727176E+03   -0.13160E-02   -0.25212E-03 19616   0.102E-01    0.413E-01
DAV:   6    -0.799736563267E+03    0.16391E-03   -0.34013E-03 19008   0.103E-01    0.223E-01
DAV:   7    -0.799736452811E+03    0.11046E-03   -0.11274E-03 17280   0.593E-02    0.875E-02
DAV:   8    -0.799736433029E+03    0.19782E-04   -0.15115E-04  9856   0.266E-02
  28 F= -.79973643E+03 E0= -.79969810E+03  d E =-.115323E-01  mag=     0.0000
       N       E                     dE             d eps       ncg     rms          rms(c)
DAV:   1    -0.799517386044E+03    0.21907E+00   -0.50386E+01 16512   0.145E+01    0.294E+00
DAV:   2    -0.799766613548E+03   -0.24923E+00   -0.27401E+00 17664   0.261E+00    0.258E+00
DAV:   3    -0.799762240064E+03    0.43735E-02   -0.17987E-01 21504   0.835E-01    0.189E+00
DAV:   4    -0.799746794053E+03    0.15446E-01   -0.74201E-02 21696   0.481E-01    0.129E+00
DAV:   5    -0.799753763042E+03   -0.69690E-02   -0.17663E-02 20448   0.274E-01    0.113E+00
DAV:   6    -0.799751641178E+03    0.21219E-02   -0.22105E-02 20864   0.281E-01    0.582E-01
DAV:   7    -0.799751333709E+03    0.30747E-03   -0.92656E-03 20896   0.158E-01    0.296E-01
DAV:   8    -0.799750975110E+03    0.35860E-03   -0.16320E-03 17280   0.767E-02    0.116E-01
DAV:   9    -0.799750941431E+03    0.33679E-04   -0.15790E-04 11936   0.307E-02
  29 F= -.79975094E+03 E0= -.79971149E+03  d E =-.260407E-01  mag=     0.0000
       N       E                     dE             d eps       ncg     rms          rms(c)
DAV:   1    -0.799748641424E+03    0.23337E-02   -0.22712E+00 16512   0.300E+00    0.682E-01
DAV:   2    -0.799756369616E+03   -0.77282E-02   -0.87113E-02 17344   0.464E-01    0.456E-01
DAV:   3    -0.799756682751E+03   -0.31313E-03   -0.50639E-03 21856   0.148E-01    0.381E-01
DAV:   4    -0.799756223508E+03    0.45924E-03   -0.35825E-03 20848   0.113E-01    0.297E-01
DAV:   5    -0.799756531927E+03   -0.30842E-03   -0.14966E-03 16976   0.745E-02    0.264E-01
DAV:   6    -0.799756295497E+03    0.23643E-03   -0.99013E-04 13344   0.622E-02    0.124E-01
DAV:   7    -0.799756251308E+03    0.44189E-04   -0.41565E-04 11504   0.366E-02
  30 F= -.79975625E+03 E0= -.79971673E+03  d E =-.530988E-02  mag=     0.0000
       N       E                     dE             d eps       ncg     rms          rms(c)
DAV:   1    -0.799710364036E+03    0.45931E-01   -0.14836E+01 16512   0.767E+00    0.172E+00
DAV:   2    -0.799762598853E+03   -0.52235E-01   -0.57211E-01 17760   0.120E+00    0.121E+00
DAV:   3    -0.799764464368E+03   -0.18655E-02   -0.39236E-02 21824   0.408E-01    0.111E+00
DAV:   4    -0.799759140018E+03    0.53244E-02   -0.22024E-02 22528   0.290E-01    0.712E-01
DAV:   5    -0.799762248739E+03   -0.31087E-02   -0.10817E-02 21632   0.203E-01    0.763E-01
DAV:   6    -0.799760061615E+03    0.21871E-02   -0.10097E-02 22496   0.178E-01    0.353E-01
DAV:   7    -0.799759723622E+03    0.33799E-03   -0.31963E-03 21312   0.913E-02    0.163E-01
DAV:   8    -0.799759665610E+03    0.58011E-04   -0.72735E-04 13872   0.522E-02
  31 F= -.79975967E+03 E0= -.79971949E+03  d E =-.872418E-02  mag=     0.0000
       N       E                     dE             d eps       ncg     rms          rms(c)
DAV:   1    -0.799756236236E+03    0.34874E-02   -0.12057E+00 16512   0.219E+00    0.485E-01
DAV:   2    -0.799760420725E+03   -0.41845E-02   -0.46391E-02 18304   0.341E-01    0.387E-01
DAV:   3    -0.799760552618E+03   -0.13189E-03   -0.40432E-03 20912   0.127E-01    0.342E-01
DAV:   4    -0.799760059646E+03    0.49297E-03   -0.19310E-03 17792   0.847E-02    0.200E-01
DAV:   5    -0.799760371337E+03   -0.31169E-03   -0.11081E-03 14464   0.620E-02    0.245E-01
DAV:   6    -0.799760197052E+03    0.17429E-03   -0.98809E-04 10976   0.541E-02    0.101E-01
DAV:   7    -0.799760174258E+03    0.22794E-04   -0.24533E-04 10848   0.301E-02
  32 F= -.79976017E+03 E0= -.79972017E+03  d E =-.923283E-02  mag=     0.0000
       N       E                     dE             d eps       ncg     rms          rms(c)
DAV:   1    -0.799748684064E+03    0.11513E-01   -0.31520E+00 16512   0.352E+00    0.802E-01
DAV:   2    -0.799764851289E+03   -0.16167E-01   -0.18464E-01 17664   0.681E-01    0.644E-01
DAV:   3    -0.799764677456E+03    0.17383E-03   -0.11182E-02 21088   0.227E-01    0.515E-01
DAV:   4    -0.799763586543E+03    0.10909E-02   -0.37501E-03 19216   0.117E-01    0.278E-01
DAV:   5    -0.799764277016E+03   -0.69047E-03   -0.13341E-03 18176   0.761E-02    0.332E-01
DAV:   6    -0.799764135739E+03    0.14128E-03   -0.16137E-03 16256   0.767E-02    0.174E-01
DAV:   7    -0.799764071530E+03    0.64208E-04   -0.75019E-04 13696   0.503E-02
  33 F= -.79976407E+03 E0= -.79972404E+03  d E =-.389727E-02  mag=     0.0000
       N       E                     dE             d eps       ncg     rms          rms(c)
DAV:   1    -0.799734754399E+03    0.29381E-01   -0.63098E+00 16512   0.497E+00    0.114E+00
DAV:   2    -0.799767642964E+03   -0.32889E-01   -0.37265E-01 17920   0.970E-01    0.919E-01
DAV:   3    -0.799767147190E+03    0.49577E-03   -0.24131E-02 21056   0.324E-01    0.765E-01
DAV:   4    -0.799764649964E+03    0.24972E-02   -0.81499E-03 20256   0.161E-01    0.386E-01
DAV:   5    -0.799765878495E+03   -0.12285E-02   -0.19513E-03 20224   0.977E-02    0.396E-01
DAV:   6    -0.799765747199E+03    0.13130E-03   -0.20851E-03 20256   0.998E-02    0.232E-01
DAV:   7    -0.799765583373E+03    0.16383E-03   -0.13551E-03 18368   0.668E-02    0.127E-01
DAV:   8    -0.799765562276E+03    0.21097E-04   -0.39814E-04 10112   0.344E-02
  34 F= -.79976556E+03 E0= -.79972515E+03  d E =-.538802E-02  mag=     0.0000
       N       E                     dE             d eps       ncg     rms          rms(c)
DAV:   1    -0.799764739654E+03    0.84372E-03   -0.17959E-01 16736   0.839E-01    0.193E-01
DAV:   2    -0.799765576021E+03   -0.83637E-03   -0.10490E-02 17184   0.161E-01    0.161E-01
DAV:   3    -0.799765603189E+03   -0.27168E-04   -0.83469E-04 15264   0.569E-02    0.139E-01
DAV:   4    -0.799765532167E+03    0.71022E-04   -0.25596E-04 10880   0.301E-02    0.613E-02
DAV:   5    -0.799765604276E+03   -0.72109E-04   -0.87492E-05 10336   0.194E-02    0.690E-02
DAV:   6    -0.799765612656E+03   -0.83801E-05   -0.98293E-05 10496   0.209E-02
  35 F= -.79976561E+03 E0= -.79972524E+03  d E =-.543840E-02  mag=     0.0000
       N       E                     dE             d eps       ncg     rms          rms(c)
DAV:   1    -0.799760859466E+03    0.47448E-02   -0.13334E+00 16512   0.211E+00    0.605E-01
DAV:   2    -0.799767956522E+03   -0.70971E-02   -0.78677E-02 18112   0.392E-01    0.534E-01
DAV:   3    -0.799767817781E+03    0.13874E-03   -0.95620E-03 21760   0.175E-01    0.449E-01
DAV:   4    -0.799767117385E+03    0.70040E-03   -0.50198E-03 18752   0.110E-01    0.286E-01
DAV:   5    -0.799767376974E+03   -0.25959E-03   -0.18586E-03 16736   0.741E-02    0.264E-01
DAV:   6    -0.799767170607E+03    0.20637E-03   -0.16387E-03 12544   0.731E-02    0.179E-01
DAV:   7    -0.799767042256E+03    0.12835E-03   -0.43589E-04 13632   0.463E-02    0.474E-02
DAV:   8    -0.799767041283E+03    0.97355E-06   -0.80410E-05 10656   0.184E-02
  36 F= -.79976704E+03 E0= -.79972673E+03  d E =-.142863E-02  mag=     0.0000
