    #         X           Y           Z       CHARGE      MIN DIST   ATOMIC VOL
 --------------------------------------------------------------------------------
    1    8.688785    1.600573    6.644890    0.731667     0.242994   331.706104
    2    0.843754    4.801719   27.287191    0.716716     0.189144   328.204992
    3    5.511276    1.600573    6.644890    0.731667     0.242991   331.706104
    4    4.021263    4.801719   27.287191    0.716716     0.189141   328.204992
    5    2.333756    1.600573    6.644890    0.731667     0.242997   331.706104
    6    7.198783    4.801719   27.287191    0.716716     0.189146   328.204992
    7    1.575662    4.801719    8.939549   15.102877     0.923050    12.988620
    8    4.753181    4.801719    8.939549   15.102877     0.923055    12.988620
    9    7.930691    4.801719    8.939549   15.102877     0.923052    12.988620
   10    9.514694    1.600573    8.954891   15.102205     0.949359    11.338215
   11    3.159665    1.600573    8.954891   15.102205     0.949359    11.338215
   12    6.337184    1.600573    8.954891   15.102205     0.949359    11.338215
   13    1.580905    1.600573   12.168410   15.148093     0.758907    11.926276
   14    4.758424    1.600573   12.168410   15.148093     0.758902    11.926276
   15    7.935934    1.600573   12.168410   15.148093     0.758904    11.926276
   16    9.525437    4.801719   12.153293   15.124714     0.963031    11.426129
   17    3.170408    4.801719   12.153293   15.124714     0.963031    11.426129
   18    6.347918    4.801719   12.153293   15.124714     0.963031    11.426129
   19    1.588760    4.801719   15.365510   15.224250     0.929268    12.331218
   20    4.766269    4.801719   15.365510   15.224250     0.929266    12.331218
   21    7.943779    4.801719   15.365510   15.224250     0.929263    12.331218
   22    0.000000    1.600573   15.365510   15.154551     0.902173    12.053504
   23    3.177510    1.600573   15.365510   15.154551     0.902173    12.053504
   24    6.355029    1.600573   15.365510   15.154551     0.902173    12.053504
   25    1.588760    1.600573   18.566629   15.175041     0.913193    12.045953
   26    4.766269    1.600573   18.566629   15.175041     0.913195    12.045953
   27    7.943779    1.600573   18.566629   15.175041     0.913198    12.045953
   28    0.000000    4.801719   18.566629   15.177835     0.943112    12.127705
   29    3.177510    4.801719   18.566629   15.177835     0.943111    12.127705
   30    6.355029    4.801719   18.566629   15.177835     0.943112    12.127705
   31    1.596605    4.801719   21.763729   15.152686     0.942758    11.919506
   32    4.774115    4.801719   21.763729   15.152686     0.942761    11.919506
   33    7.951634    4.801719   21.763729   15.152686     0.942755    11.919506
   34    0.007102    1.600573   21.778845   15.122089     0.955601    11.400180
   35    3.184621    1.600573   21.778845   15.122089     0.955601    11.400180
   36    6.362131    1.600573   21.778845   15.122089     0.955601    11.400180
   37    1.601848    1.600573   24.992590   15.093037     0.919292    12.938111
   38    4.779358    1.600573   24.992590   15.093037     0.919290    12.938111
   39    7.956877    1.600573   24.992590   15.093037     0.919295    12.938111
   40    0.017845    4.801719   24.977247   15.056790     0.941930    11.183303
   41    3.195355    4.801719   24.977247   15.056790     0.941929    11.183303
   42    6.372874    4.801719   24.977247   15.056790     0.941930    11.183303
   43    9.517926    4.801719    7.773056    6.738952     0.849831    37.973726
   44    3.162906    4.801719    7.773056    6.738952     0.849837    37.973726
   45    6.340416    4.801719    7.773056    6.738952     0.849834    37.973726
   46    1.574613    0.373491    8.975669    6.929204     0.852738    11.103373
   47    4.752123    0.373491    8.975669    6.929204     0.852736    11.103373
   48    7.929643    0.373491    8.975669    6.929204     0.852740    11.103373
   49    9.519794    4.801719   10.182925    6.929720     0.882818    10.264588
   50    3.164765    4.801719   10.182925    6.929720     0.882817    10.264588
   51    6.342284    4.801719   10.182925    6.929720     0.882818    10.264588
   52    1.574613    2.827655    8.975669    6.835613     0.852738    10.543865
   53    4.752123    2.827655    8.975669    6.835613     0.852736    10.543865
   54    7.929643    2.827655    8.975669    6.835613     0.852740    10.543865
   55    9.523407    1.600573   10.945754    6.954140     0.866716    10.393986
   56    3.168387    1.600573   10.945754    6.954140     0.866715    10.393986
   57    6.345897    1.600573   10.945754    6.954140     0.866715    10.393986
   58    1.580724    3.576538   12.163484    6.996936     0.864493    11.012335
   59    4.758234    3.576538   12.163484    6.996936     0.864493    11.012335
   60    7.935753    3.576538   12.163484    6.996936     0.864493    11.012335
   61    9.525990    1.600573   13.391461    6.905650     0.820379     9.964830
   62    3.170961    1.600573   13.391461    6.905650     0.820376     9.964830
   63    6.348480    1.600573   13.391461    6.905650     0.820382     9.964830
   64    1.580724    6.026900   12.163484    6.874184     0.864493    10.295831
   65    4.758234    6.026900   12.163484    6.874184     0.864493    10.295831
   66    7.935753    6.026900   12.163484    6.874184     0.864493    10.295831
   67    0.000000    4.801719   14.138155    6.890641     0.835523    10.099695
   68    3.177510    4.801719   14.138155    6.898086     0.835523    10.212343
   69    6.355029    4.801719   14.138155    6.894364     0.835523    10.156019
   70    1.588760    0.373215   15.365510    6.959108     0.868773    10.715006
   71    4.766269    0.373215   15.365510    6.956495     0.868773    10.675606
   72    7.943779    0.373215   15.365510    6.961721     0.868773    10.754407
   73    0.000000    4.801719   16.592864    6.868505     0.838535     9.679826
   74    3.177510    4.801719   16.592864    6.875699     0.838538     9.787961
   75    6.355029    4.801719   16.592864    6.872102     0.838532     9.733893
   76    1.588760    2.827931   15.365510    6.867822     0.868773    10.186394
   77    4.766269    2.827931   15.365510    6.865209     0.868773    10.146994
   78    7.943779    2.827931   15.365510    6.870436     0.868773    10.225795
   79    0.000000    1.600573   17.339275    6.894223     0.843063     9.820332
   80    3.177510    1.600573   17.339275    6.899941     0.843060     9.906597
   81    6.355029    1.600573   17.339275    6.897082     0.843066     9.863464
   82    1.588760    3.574361   18.566629    6.978170     0.870945    10.884586
   83    4.766269    3.574361   18.566629    6.974875     0.870945    10.834597
   84    7.943779    3.574361   18.566629    6.978564     0.870945    10.889533
   85    0.000000    1.600573   19.793983    6.902080     0.828031    10.125037
   86    3.177510    1.600573   19.793983    6.908138     0.828031    10.217724
   87    6.355029    1.600573   19.793983    6.905109     0.828030    10.171380
   88    1.588760    6.029077   18.566629    6.872014     0.870945    10.241243
   89    4.766269    6.029077   18.566629    6.869686     0.870945    10.206268
   90    7.943779    6.029077   18.566629    6.874342     0.870945    10.276218
   91    0.006549    4.801719   20.540677    6.898300     0.824807     9.904688
   92    3.184059    4.801719   20.540677    6.898300     0.824806     9.904688
   93    6.361578    4.801719   20.540677    6.898300     0.824807     9.904688
   94    1.596786    0.375392   21.768654    6.888532     0.866059    10.447186
   95    4.774305    0.375392   21.768654    6.895983     0.866059    10.521301
   96    7.951815    0.375392   21.768654    6.895916     0.866059    10.521301
   97    0.009132    4.801719   22.986384    6.932933     0.872168    10.205400
   98    3.186642    4.801719   22.986384    6.932933     0.872168    10.205400
   99    6.364152    4.801719   22.986384    6.932933     0.872168    10.205400
  100    1.596786    2.825754   21.768654    6.997282     0.866059    11.088793
  101    4.774305    2.825754   21.768654    6.989831     0.866059    11.014678
  102    7.951815    2.825754   21.768654    6.989897     0.866059    11.014678
  103    0.012745    1.600573   23.749213    6.935362     0.856633    10.285851
  104    3.190255    1.600573   23.749213    6.935362     0.856633    10.285851
  105    6.367774    1.600573   23.749213    6.935362     0.856633    10.285851
  106    1.602896    3.574637   24.956469    6.952466     0.859692    11.162387
  107    4.780416    3.574637   24.956469    6.952466     0.859694    11.162387
  108    7.957926    3.574637   24.956469    6.952466     0.859693    11.162387
  109    0.014613    1.600573   26.159083    6.745092     0.864441    41.373646
  110    3.192123    1.600573   26.159083    6.745092     0.864438    41.373646
  111    6.369633    1.600573   26.159083    6.745092     0.864435    41.373646
  112    1.602896    6.028801   24.956469    6.843688     0.859692    10.592986
  113    4.780416    6.028801   24.956469    6.843688     0.859694    10.592986
  114    7.957926    6.028801   24.956469    6.843688     0.859693    10.592986
  115    0.062267    1.600573    7.023984    6.647560     0.460831    19.605949
  116    9.470272    4.801719   26.908098    6.667032     0.459735    19.991365
  117    3.239786    1.600573    7.023984    6.647560     0.460838    19.605949
  118    6.292753    4.801719   26.908098    6.667032     0.459741    19.991365
  119    6.417296    1.600573    7.023984    6.647560     0.460835    19.605949
  120    3.115243    4.801719   26.908098    6.667032     0.459738    19.991365
 --------------------------------------------------------------------------------
    VACUUM CHARGE:               0.0000
    VACUUM VOLUME:               0.0000
    NUMBER OF ELECTRONS:      1086.0000
