  120  120    1    2
  0.2879344E+02  0.9532539E-09  0.6402292E-09  0.5661490E-08  0.5000000E-15
  1.000000000000000E-004
  CAR 
 IrO2-110	                               
   1086     20    720
 
  0.0000000E+00  0.0000000E+00  0.0000000E+00  0.2083333E-01
      1        -95.023245      -95.029786   1.000000   1.000000
      2        -95.021434      -95.028116   1.000000   1.000000
      3        -95.021434      -95.028116   1.000000   1.000000
      4        -95.020817      -94.976892   1.000000   1.000000
      5        -95.019308      -94.975230   1.000000   1.000000
      6        -95.019308      -94.975230   1.000000   1.000000
      7        -94.954167      -94.959011   1.000000   1.000000
      8        -94.952478      -94.957936   1.000000   1.000000
      9        -94.952478      -94.957331   1.000000   1.000000
     10        -94.951340      -94.957331   1.000000   1.000000
     11        -94.949578      -94.956266   1.000000   1.000000
     12        -94.949578      -94.956266   1.000000   1.000000
     13        -94.947798      -94.924004   1.000000   1.000000
     14        -94.946238      -94.922333   1.000000   1.000000
     15        -94.946238      -94.922333   1.000000   1.000000
     16        -94.927694      -94.915896   1.000000   1.000000
     17        -94.926026      -94.914201   1.000000   1.000000
     18        -94.926026      -94.914201   1.000000   1.000000
     19        -94.911036      -94.903809   1.000000   1.000000
     20        -94.909347      -94.903456   1.000000   1.000000
     21        -94.909347      -94.902151   1.000000   1.000000
     22        -94.903006      -94.902151   1.000000   1.000000
     23        -94.901245      -94.901751   1.000000   1.000000
     24        -94.901245      -94.901751   1.000000   1.000000
     25        -94.899328      -94.894272   1.000000   1.000000
     26        -94.897736      -94.892623   1.000000   1.000000
     27        -94.897736      -94.892623   1.000000   1.000000
     28        -94.888639      -94.889071   1.000000   1.000000
     29        -94.886868      -94.887383   1.000000   1.000000
     30        -94.886868      -94.887383   1.000000   1.000000
     31        -94.884952      -94.880899   1.000000   1.000000
     32        -94.884459      -94.879773   1.000000   1.000000
     33        -94.883371      -94.879146   1.000000   1.000000
     34        -94.883371      -94.879146   1.000000   1.000000
     35        -94.882821      -94.878229   1.000000   1.000000
     36        -94.882821      -94.878229   1.000000   1.000000
     37        -52.063000      -52.073077   1.000000   1.000000
     38        -52.057709      -52.067976   1.000000   1.000000
     39        -52.057709      -52.067976   1.000000   1.000000
     40        -51.991124      -52.001202   1.000000   1.000000
     41        -51.985836      -51.996103   1.000000   1.000000
     42        -51.985836      -51.996103   1.000000   1.000000
     43        -51.950535      -51.917337   1.000000   1.000000
     44        -51.946121      -51.911914   1.000000   1.000000
     45        -51.946121      -51.911914   1.000000   1.000000
     46        -51.909851      -51.889520   1.000000   1.000000
     47        -51.904370      -51.889520   1.000000   1.000000
     48        -51.904370      -51.879183   1.000000   1.000000
     49        -51.884965      -51.877904   1.000000   1.000000
     50        -51.884965      -51.877904   1.000000   1.000000
     51        -51.877277      -51.874212   1.000000   1.000000
     52        -51.873119      -51.868788   1.000000   1.000000
     53        -51.873119      -51.868788   1.000000   1.000000
     54        -51.868141      -51.863990   1.000000   1.000000
     55        -51.868141      -51.863990   1.000000   1.000000
     56        -51.866727      -51.856271   1.000000   1.000000
     57        -51.864641      -51.850839   1.000000   1.000000
     58        -51.864641      -51.850839   1.000000   1.000000
     59        -51.862067      -51.849328   1.000000   1.000000
     60        -51.861245      -51.843635   1.000000   1.000000
     61        -51.861245      -51.843635   1.000000   1.000000
     62        -51.856220      -51.842438   1.000000   1.000000
     63        -51.856220      -51.842438   1.000000   1.000000
     64        -51.853599      -51.839453   1.000000   1.000000
     65        -51.848022      -51.839233   1.000000   1.000000
     66        -51.848022      -51.839233   1.000000   1.000000
     67        -51.843024      -51.834958   1.000000   1.000000
     68        -51.839673      -51.834509   1.000000   1.000000
     69        -51.839673      -51.834509   1.000000   1.000000
     70        -51.839215      -51.833779   1.000000   1.000000
     71        -51.836725      -51.833779   1.000000   1.000000
     72        -51.836725      -51.825069   1.000000   1.000000
     73        -51.833647      -51.820273   1.000000   1.000000
     74        -51.833647      -51.820273   1.000000   1.000000
     75        -51.829510      -51.820045   1.000000   1.000000
     76        -51.829510      -51.820045   1.000000   1.000000
     77        -51.828642      -51.819404   1.000000   1.000000
     78        -51.819786      -51.819404   1.000000   1.000000
     79        -51.819786      -51.813080   1.000000   1.000000
     80        -51.818864      -51.812472   1.000000   1.000000
     81        -51.815977      -51.811855   1.000000   1.000000
     82        -51.815977      -51.811855   1.000000   1.000000
     83        -51.810078      -51.805913   1.000000   1.000000
     84        -51.810078      -51.805890   1.000000   1.000000
     85        -51.807793      -51.805890   1.000000   1.000000
     86        -51.807387      -51.799490   1.000000   1.000000
     87        -51.807387      -51.799490   1.000000   1.000000
     88        -51.802206      -51.797518   1.000000   1.000000
     89        -51.802206      -51.797518   1.000000   1.000000
     90        -51.796443      -51.796027   1.000000   1.000000
     91        -51.796443      -51.796027   1.000000   1.000000
     92        -51.795590      -51.791558   1.000000   1.000000
     93        -51.795590      -51.791558   1.000000   1.000000
     94        -51.794780      -51.789476   1.000000   1.000000
     95        -51.794780      -51.777129   1.000000   1.000000
     96        -51.792646      -51.777129   1.000000   1.000000
     97        -51.788127      -51.770557   1.000000   1.000000
     98        -51.788127      -51.770557   1.000000   1.000000
     99        -51.787431      -51.768378   1.000000   1.000000
    100        -51.763475      -51.763305   1.000000   1.000000
    101        -51.748521      -51.746353   1.000000   1.000000
    102        -51.744809      -51.740699   1.000000   1.000000
    103        -51.738720      -51.736336   1.000000   1.000000
    104        -51.738720      -51.722263   1.000000   1.000000
    105        -51.735989      -51.720146   1.000000   1.000000
    106        -51.735587      -51.717091   1.000000   1.000000
    107        -51.728526      -51.702971   1.000000   1.000000
    108        -51.721260      -51.695391   1.000000   1.000000
    109        -51.720179      -51.680562   1.000000   1.000000
    110        -51.719066      -51.670502   1.000000   1.000000
    111        -51.713571      -51.670502   1.000000   1.000000
    112        -51.675567      -51.630764   1.000000   1.000000
    113        -51.665761      -51.619957   1.000000   1.000000
    114        -51.665761      -51.619957   1.000000   1.000000
    115        -51.621897      -51.607606   1.000000   1.000000
    116        -51.613284      -51.605596   1.000000   1.000000
    117        -51.611005      -51.597543   1.000000   1.000000
    118        -51.611005      -51.597543   1.000000   1.000000
    119        -51.603357      -51.595607   1.000000   1.000000
    120        -51.603357      -51.595607   1.000000   1.000000
    121        -51.589458      -51.589159   1.000000   1.000000
    122        -51.582740      -51.587676   1.000000   1.000000
    123        -51.578765      -51.583809   1.000000   1.000000
    124        -51.578654      -51.579462   1.000000   1.000000
    125        -51.578654      -51.579462   1.000000   1.000000
    126        -51.575061      -51.577920   1.000000   1.000000
    127        -51.572938      -51.576821   1.000000   1.000000
    128        -51.572938      -51.576821   1.000000   1.000000
    129        -51.570077      -51.574797   1.000000   1.000000
    130        -51.568395      -51.573041   1.000000   1.000000
    131        -51.568377      -51.573041   1.000000   1.000000
    132        -51.567877      -51.569454   1.000000   1.000000
    133        -51.567877      -51.566981   1.000000   1.000000
    134        -51.564281      -51.566981   1.000000   1.000000
    135        -51.564281      -51.565100   1.000000   1.000000
    136        -51.560151      -51.565100   1.000000   1.000000
    137        -51.560151      -51.562390   1.000000   1.000000
    138        -51.558576      -51.558666   1.000000   1.000000
    139        -51.558576      -51.558666   1.000000   1.000000
    140        -51.557423      -51.552401   1.000000   1.000000
    141        -51.557423      -51.552401   1.000000   1.000000
    142        -51.496605      -51.506144   1.000000   1.000000
    143        -51.485606      -51.495166   1.000000   1.000000
    144        -51.485606      -51.495166   1.000000   1.000000
    145        -22.459594      -22.457460   1.000000   1.000000
    146        -22.333725      -22.330703   1.000000   1.000000
    147        -22.162576      -22.158260   1.000000   1.000000
    148        -22.005964      -22.002690   1.000000   1.000000
    149        -21.910723      -21.909476   1.000000   1.000000
    150        -21.848533      -21.848008   1.000000   1.000000
    151        -21.757124      -21.752487   1.000000   1.000000
    152        -21.635263      -21.634251   1.000000   1.000000
    153        -21.635263      -21.634251   1.000000   1.000000
    154        -21.594423      -21.588289   1.000000   1.000000
    155        -21.551272      -21.548373   1.000000   1.000000
    156        -21.551272      -21.548373   1.000000   1.000000
    157        -21.449593      -21.444472   1.000000   1.000000
    158        -21.449593      -21.444472   1.000000   1.000000
    159        -21.399065      -21.391792   1.000000   1.000000
    160        -21.348242      -21.344748   1.000000   1.000000
    161        -21.348242      -21.344748   1.000000   1.000000
    162        -21.320966      -21.316858   1.000000   1.000000
    163        -21.277513      -21.276266   1.000000   1.000000
    164        -21.277513      -21.276266   1.000000   1.000000
    165        -21.225796      -21.225076   1.000000   1.000000
    166        -21.225796      -21.225076   1.000000   1.000000
    167        -21.175960      -21.175541   1.000000   1.000000
    168        -21.175960      -21.175541   1.000000   1.000000
    169        -21.129372      -21.127308   1.000000   1.000000
    170        -21.079858      -21.073793   1.000000   1.000000
    171        -21.079858      -21.073793   1.000000   1.000000
    172        -21.067498      -21.065375   1.000000   1.000000
    173        -21.014060      -21.003314   1.000000   1.000000
    174        -21.014060      -21.003314   1.000000   1.000000
    175        -20.985891      -20.972533   1.000000   1.000000
    176        -20.985891      -20.972533   1.000000   1.000000
    177        -20.969683      -20.959073   1.000000   1.000000
    178        -20.969683      -20.959073   1.000000   1.000000
    179        -20.928352      -20.913272   1.000000   1.000000
    180        -20.928352      -20.913272   1.000000   1.000000
    181        -20.825655      -20.828411   1.000000   1.000000
    182        -20.825655      -20.828411   1.000000   1.000000
    183        -20.817182      -20.818042   1.000000   1.000000
    184        -20.817182      -20.818042   1.000000   1.000000
    185        -20.789999      -20.791945   1.000000   1.000000
    186        -20.789999      -20.791945   1.000000   1.000000
    187        -20.784721      -20.784894   1.000000   1.000000
    188        -20.784721      -20.784894   1.000000   1.000000
    189        -20.759611      -20.758798   1.000000   1.000000
    190        -20.759611      -20.758798   1.000000   1.000000
    191        -20.738672      -20.737733   1.000000   1.000000
    192        -20.738672      -20.737733   1.000000   1.000000
    193        -20.712621      -20.712173   1.000000   1.000000
    194        -20.712621      -20.712173   1.000000   1.000000
    195        -20.694585      -20.688431   1.000000   1.000000
    196        -20.694585      -20.688431   1.000000   1.000000
    197        -20.688354      -20.673729   1.000000   1.000000
    198        -20.676531      -20.673729   1.000000   1.000000
    199        -20.676531      -20.664447   1.000000   1.000000
    200        -20.645993      -20.640118   1.000000   1.000000
    201        -20.645993      -20.640118   1.000000   1.000000
    202        -20.640342      -20.620206   1.000000   1.000000
    203        -20.515235      -20.499354   1.000000   1.000000
    204        -20.488623      -20.453964   1.000000   1.000000
    205        -20.443669      -20.444495   1.000000   1.000000
    206        -20.409511      -20.409820   1.000000   1.000000
    207        -20.395929      -20.377206   1.000000   1.000000
    208        -20.377783      -20.362902   1.000000   1.000000
    209        -20.369231      -20.348297   1.000000   1.000000
    210        -20.369231      -20.320410   1.000000   1.000000
    211        -20.349006      -20.306851   1.000000   1.000000
    212        -20.329891      -20.306851   1.000000   1.000000
    213        -20.321021      -20.300180   1.000000   1.000000
    214        -20.286969      -20.282908   1.000000   1.000000
    215        -20.286969      -20.224342   1.000000   1.000000
    216        -20.284577      -20.224342   1.000000   1.000000
    217        -19.470750      -19.473864   1.000000   1.000000
    218        -19.470750      -19.473864   1.000000   1.000000
    219        -19.388983      -19.392098   1.000000   1.000000
    220        -19.388983      -19.392098   1.000000   1.000000
    221        -19.343136      -19.345110   1.000000   1.000000
    222        -19.265086      -19.267087   1.000000   1.000000
    223        -11.041431      -11.040933   1.000000   1.000000
    224        -11.005818      -11.005376   1.000000   1.000000
    225        -10.998382      -10.995918   1.000000   1.000000
    226        -10.981954      -10.981240   1.000000   1.000000
    227        -10.971146      -10.970773   1.000000   1.000000
    228        -10.928969      -10.926325   1.000000   1.000000
    229        -10.761726      -10.759351   1.000000   1.000000
    230        -10.717140      -10.715094   1.000000   1.000000
    231        -10.214694      -10.210290   1.000000   1.000000
    232        -10.196757      -10.192434   1.000000   1.000000
    233        -10.009762      -10.009870   1.000000   1.000000
    234        -10.009762      -10.009870   1.000000   1.000000
    235         -9.986937       -9.986016   1.000000   1.000000
    236         -9.986937       -9.986016   1.000000   1.000000
    237         -9.977174       -9.976592   1.000000   1.000000
    238         -9.977174       -9.976592   1.000000   1.000000
    239         -9.956979       -9.955935   1.000000   1.000000
    240         -9.956979       -9.955935   1.000000   1.000000
    241         -9.942882       -9.942751   1.000000   1.000000
    242         -9.942882       -9.942751   1.000000   1.000000
    243         -9.910705       -9.909423   1.000000   1.000000
    244         -9.910705       -9.909423   1.000000   1.000000
    245         -9.862168       -9.860732   1.000000   1.000000
    246         -9.862168       -9.860732   1.000000   1.000000
    247         -9.760476       -9.759145   1.000000   1.000000
    248         -9.760476       -9.759145   1.000000   1.000000
    249         -9.587928       -9.583365   1.000000   1.000000
    250         -9.587928       -9.583365   1.000000   1.000000
    251         -9.522999       -9.516610   1.000000   1.000000
    252         -9.522999       -9.516610   1.000000   1.000000
    253         -9.380006       -9.377584   1.000000   1.000000
    254         -9.364064       -9.358752   1.000000   1.000000
    255         -9.364064       -9.358752   1.000000   1.000000
    256         -9.345098       -9.343226   1.000000   1.000000
    257         -9.331087       -9.326386   1.000000   1.000000
    258         -9.327919       -9.323945   1.000000   1.000000
    259         -9.318396       -9.310761   1.000000   1.000000
    260         -9.318396       -9.308333   1.000000   1.000000
    261         -9.314971       -9.308333   1.000000   1.000000
    262         -9.285166       -9.283970   1.000000   1.000000
    263         -9.281957       -9.281420   1.000000   1.000000
    264         -9.273185       -9.272174   1.000000   1.000000
    265         -9.258267       -9.246495   1.000000   1.000000
    266         -9.230532       -9.227652   1.000000   1.000000
    267         -9.230532       -9.225541   1.000000   1.000000
    268         -9.228012       -9.225541   1.000000   1.000000
    269         -9.194875       -9.190872   1.000000   1.000000
    270         -9.194875       -9.190872   1.000000   1.000000
    271         -9.193166       -9.189663   1.000000   1.000000
    272         -9.184880       -9.181719   1.000000   1.000000
    273         -9.178349       -9.173723   1.000000   1.000000
    274         -9.178349       -9.173723   1.000000   1.000000
    275         -9.163977       -9.163650   1.000000   1.000000
    276         -9.163977       -9.163650   1.000000   1.000000
    277         -9.080364       -9.076863   1.000000   1.000000
    278         -9.080364       -9.076863   1.000000   1.000000
    279         -9.077235       -9.071064   1.000000   1.000000
    280         -9.077235       -9.071064   1.000000   1.000000
    281         -9.067483       -9.064447   1.000000   1.000000
    282         -8.965754       -8.961400   1.000000   1.000000
    283         -8.965754       -8.961400   1.000000   1.000000
    284         -8.936693       -8.931257   1.000000   1.000000
    285         -8.936693       -8.931257   1.000000   1.000000
    286         -8.849715       -8.851798   1.000000   1.000000
    287         -8.832704       -8.823225   1.000000   1.000000
    288         -8.821017       -8.815840   1.000000   1.000000
    289         -8.821017       -8.815840   1.000000   1.000000
    290         -8.794043       -8.791211   1.000000   1.000000
    291         -8.794043       -8.791211   1.000000   1.000000
    292         -8.781222       -8.783320   1.000000   1.000000
    293         -8.668608       -8.663998   1.000000   1.000000
    294         -8.668608       -8.663998   1.000000   1.000000
    295         -8.641122       -8.635396   1.000000   1.000000
    296         -8.641122       -8.635396   1.000000   1.000000
    297         -8.494198       -8.490619   1.000000   1.000000
    298         -8.494198       -8.490619   1.000000   1.000000
    299         -8.477180       -8.460459   1.000000   1.000000
    300         -8.435005       -8.429973   1.000000   1.000000
    301         -8.435005       -8.429973   1.000000   1.000000
    302         -8.333931       -8.330437   1.000000   1.000000
    303         -8.333931       -8.330437   1.000000   1.000000
    304         -8.267452       -8.250121   1.000000   1.000000
    305         -8.222017       -8.218245   1.000000   1.000000
    306         -8.222017       -8.218245   1.000000   1.000000
    307         -8.201633       -8.184375   1.000000   1.000000
    308         -8.187709       -8.183995   1.000000   1.000000
    309         -8.187709       -8.183995   1.000000   1.000000
    310         -8.144334       -8.142650   1.000000   1.000000
    311         -8.144334       -8.142650   1.000000   1.000000
    312         -8.061633       -8.059551   1.000000   1.000000
    313         -8.061633       -8.059551   1.000000   1.000000
    314         -8.009485       -7.992599   1.000000   1.000000
    315         -7.984790       -7.982306   1.000000   1.000000
    316         -7.984790       -7.982306   1.000000   1.000000
    317         -7.921118       -7.915589   1.000000   1.000000
    318         -7.921118       -7.915589   1.000000   1.000000
    319         -7.918801       -7.913995   1.000000   1.000000
    320         -7.918801       -7.913995   1.000000   1.000000
    321         -7.851792       -7.844719   1.000000   1.000000
    322         -7.851792       -7.844719   1.000000   1.000000
    323         -7.804709       -7.803344   1.000000   1.000000
    324         -7.804709       -7.803344   1.000000   1.000000
    325         -7.679818       -7.676628   1.000000   1.000000
    326         -7.679818       -7.676628   1.000000   1.000000
    327         -7.627731       -7.617965   1.000000   1.000000
    328         -7.627731       -7.617965   1.000000   1.000000
    329         -7.470345       -7.454677   1.000000   1.000000
    330         -7.298646       -7.291736   1.000000   1.000000
    331         -7.294251       -7.279713   1.000000   1.000000
    332         -7.294251       -7.279713   1.000000   1.000000
    333         -7.280918       -7.273749   1.000000   1.000000
    334         -6.995278       -6.983562   1.000000   1.000000
    335         -6.995278       -6.983562   1.000000   1.000000
    336         -6.916657       -6.906941   1.000000   1.000000
    337         -6.916657       -6.906941   1.000000   1.000000
    338         -6.903878       -6.893138   1.000000   1.000000
    339         -6.866476       -6.856830   1.000000   1.000000
    340         -6.866476       -6.856830   1.000000   1.000000
    341         -6.801068       -6.793384   1.000000   1.000000
    342         -6.801068       -6.793384   1.000000   1.000000
    343         -6.714752       -6.709701   1.000000   1.000000
    344         -6.709374       -6.703512   1.000000   1.000000
    345         -6.709374       -6.703512   1.000000   1.000000
    346         -6.689597       -6.689601   1.000000   1.000000
    347         -6.689597       -6.689601   1.000000   1.000000
    348         -6.647115       -6.641153   1.000000   1.000000
    349         -6.647115       -6.641153   1.000000   1.000000
    350         -6.623300       -6.619687   1.000000   1.000000
    351         -6.621072       -6.614566   1.000000   1.000000
    352         -6.603290       -6.601584   1.000000   1.000000
    353         -6.603290       -6.601584   1.000000   1.000000
    354         -6.581218       -6.576664   1.000000   1.000000
    355         -6.581218       -6.576664   1.000000   1.000000
    356         -6.578443       -6.576601   1.000000   1.000000
    357         -6.572659       -6.567188   1.000000   1.000000
    358         -6.556600       -6.552166   1.000000   1.000000
    359         -6.556600       -6.552166   1.000000   1.000000
    360         -6.520004       -6.509312   1.000000   1.000000
    361         -6.471653       -6.467993   1.000000   1.000000
    362         -6.467259       -6.461905   1.000000   1.000000
    363         -6.467259       -6.461905   1.000000   1.000000
    364         -6.448748       -6.435291   1.000000   1.000000
    365         -6.422520       -6.422948   1.000000   1.000000
    366         -6.422520       -6.422948   1.000000   1.000000
    367         -6.375596       -6.372232   1.000000   1.000000
    368         -6.354480       -6.355065   1.000000   1.000000
    369         -6.354480       -6.355065   1.000000   1.000000
    370         -6.305026       -6.295287   1.000000   1.000000
    371         -6.284450       -6.279117   1.000000   1.000000
    372         -6.274679       -6.270133   1.000000   1.000000
    373         -6.274679       -6.270133   1.000000   1.000000
    374         -6.152103       -6.150677   1.000000   1.000000
    375         -6.067516       -6.064565   1.000000   1.000000
    376         -6.067516       -6.064565   1.000000   1.000000
    377         -6.041271       -6.034416   1.000000   1.000000
    378         -6.041271       -6.034416   1.000000   1.000000
    379         -5.953002       -5.947722   1.000000   1.000000
    380         -5.939648       -5.932566   1.000000   1.000000
    381         -5.939648       -5.932566   1.000000   1.000000
    382         -5.928602       -5.920850   1.000000   1.000000
    383         -5.928602       -5.920850   1.000000   1.000000
    384         -5.893168       -5.889133   1.000000   1.000000
    385         -5.868307       -5.861047   1.000000   1.000000
    386         -5.833544       -5.823355   1.000000   1.000000
    387         -5.833544       -5.823355   1.000000   1.000000
    388         -5.825370       -5.817388   1.000000   1.000000
    389         -5.825370       -5.817388   1.000000   1.000000
    390         -5.791545       -5.792999   1.000000   1.000000
    391         -5.784331       -5.783058   1.000000   1.000000
    392         -5.784331       -5.783058   1.000000   1.000000
    393         -5.738950       -5.732483   1.000000   1.000000
    394         -5.738950       -5.722735   1.000000   1.000000
    395         -5.732302       -5.722735   1.000000   1.000000
    396         -5.699827       -5.700660   1.000000   1.000000
    397         -5.693131       -5.693541   1.000000   1.000000
    398         -5.659470       -5.650538   1.000000   1.000000
    399         -5.659470       -5.650538   1.000000   1.000000
    400         -5.633624       -5.630981   1.000000   1.000000
    401         -5.625370       -5.616733   1.000000   1.000000
    402         -5.586739       -5.580691   1.000000   1.000000
    403         -5.586739       -5.579535   1.000000   1.000000
    404         -5.582504       -5.579535   1.000000   1.000000
    405         -5.559439       -5.555556   1.000000   1.000000
    406         -5.559439       -5.555556   1.000000   1.000000
    407         -5.483055       -5.473579   1.000000   1.000000
    408         -5.393967       -5.392623   1.000000   1.000000
    409         -5.390631       -5.372488   1.000000   1.000000
    410         -5.336313       -5.319653   1.000000   1.000000
    411         -5.336313       -5.319653   1.000000   1.000000
    412         -5.312075       -5.310008   1.000000   1.000000
    413         -5.312075       -5.310008   1.000000   1.000000
    414         -5.302100       -5.292240   1.000000   1.000000
    415         -5.156084       -5.146950   1.000000   1.000000
    416         -5.156084       -5.130138   1.000000   1.000000
    417         -5.148673       -5.130138   1.000000   1.000000
    418         -5.118947       -5.098589   1.000000   1.000000
    419         -5.026822       -5.026641   1.000000   1.000000
    420         -5.017288       -5.013688   1.000000   1.000000
    421         -5.017288       -5.013688   1.000000   1.000000
    422         -4.944961       -4.938771   1.000000   1.000000
    423         -4.925176       -4.920724   1.000000   1.000000
    424         -4.891577       -4.866282   1.000000   1.000000
    425         -4.891577       -4.866282   1.000000   1.000000
    426         -4.822228       -4.819210   1.000000   1.000000
    427         -4.822228       -4.819210   1.000000   1.000000
    428         -4.796133       -4.773849   1.000000   1.000000
    429         -4.764049       -4.754610   1.000000   1.000000
    430         -4.758822       -4.747812   1.000000   1.000000
    431         -4.757576       -4.740412   1.000000   1.000000
    432         -4.757576       -4.740412   1.000000   1.000000
    433         -4.675821       -4.658188   1.000000   1.000000
    434         -4.675821       -4.658188   1.000000   1.000000
    435         -4.640601       -4.639094   1.000000   1.000000
    436         -4.553068       -4.547920   1.000000   1.000000
    437         -4.553068       -4.547920   1.000000   1.000000
    438         -4.524481       -4.510666   1.000000   1.000000
    439         -4.474071       -4.468121   1.000000   1.000000
    440         -4.474071       -4.468121   1.000000   1.000000
    441         -4.463261       -4.414817   1.000000   1.000000
    442         -4.463261       -4.412556   1.000000   1.000000
    443         -4.437678       -4.412556   1.000000   1.000000
    444         -4.362013       -4.329558   1.000000   1.000000
    445         -4.362013       -4.329558   1.000000   1.000000
    446         -4.335206       -4.314293   1.000000   1.000000
    447         -4.260715       -4.245102   1.000000   1.000000
    448         -4.260715       -4.232492   1.000000   1.000000
    449         -4.250745       -4.232492   1.000000   1.000000
    450         -4.175652       -4.156972   1.000000   1.000000
    451         -4.175652       -4.156972   1.000000   1.000000
    452         -4.117096       -4.104043   1.000000   1.000000
    453         -4.074661       -4.055303   1.000000   1.000000
    454         -3.919439       -3.910970   1.000000   1.000000
    455         -3.897127       -3.891269   1.000000   1.000000
    456         -3.888209       -3.880971   1.000000   1.000000
    457         -3.878097       -3.871937   1.000000   1.000000
    458         -3.867196       -3.866239   1.000000   1.000000
    459         -3.859014       -3.855791   1.000000   1.000000
    460         -3.852501       -3.853400   1.000000   1.000000
    461         -3.828767       -3.820641   1.000000   1.000000
    462         -3.820085       -3.807759   1.000000   1.000000
    463         -3.812048       -3.801809   1.000000   1.000000
    464         -3.805416       -3.799092   1.000000   1.000000