       N       E                     dE             d eps       ncg     rms          rms(c)
DAV:   1     0.141911163154E+05    0.14191E+05   -0.61343E+05 68400   0.134E+03
DAV:   2     0.383455376135E+03   -0.13808E+05   -0.13124E+05 78672   0.565E+02
DAV:   3    -0.100919862845E+04   -0.13927E+04   -0.13588E+04 69480   0.162E+02
DAV:   4    -0.106437779205E+04   -0.55179E+02   -0.53814E+02 81024   0.400E+01
DAV:   5    -0.106607862076E+04   -0.17008E+01   -0.16710E+01 74880   0.622E+00
DAV:   6    -0.106615131030E+04   -0.72690E-01   -0.72328E-01 80376   0.142E+00
DAV:   7    -0.106615451109E+04   -0.32008E-02   -0.31957E-02 73896   0.250E-01
DAV:   8    -0.106615469362E+04   -0.18253E-03   -0.18237E-03 75792   0.599E-02    0.350E+02
DAV:   9    -0.660702029391E+03    0.40545E+03   -0.15194E+03 73632   0.626E+01    0.260E+02
DAV:  10    -0.682750358305E+03   -0.22048E+02   -0.44547E+02 76728   0.407E+01    0.156E+02
DAV:  11    -0.617297892152E+03    0.65452E+02   -0.15391E+02 80040   0.281E+01    0.916E+01
DAV:  12    -0.581726731957E+03    0.35571E+02   -0.40892E+02 74400   0.266E+01    0.169E+02
DAV:  13    -0.570105827286E+03    0.11621E+02   -0.38342E+01 70560   0.949E+00    0.883E+01
DAV:  14    -0.545392382492E+03    0.24713E+02   -0.19269E+01 71304   0.632E+00    0.533E+01
DAV:  15    -0.544394804250E+03    0.99758E+00   -0.84948E+00 69936   0.446E+00    0.416E+01
DAV:  16    -0.561640212883E+03   -0.17245E+02   -0.69620E+00 69576   0.441E+00    0.353E+01
DAV:  17    -0.585124867994E+03   -0.23485E+02   -0.66911E+00 71664   0.447E+00    0.296E+01
DAV:  18    -0.624219597129E+03   -0.39095E+02   -0.13480E+01 64848   0.505E+00    0.247E+01
DAV:  19    -0.655682686615E+03   -0.31463E+02   -0.77823E+00 69840   0.384E+00    0.291E+01
DAV:  20    -0.651268997114E+03    0.44137E+01   -0.76161E-01 61512   0.159E+00    0.255E+01
DAV:  21    -0.661867280474E+03   -0.10598E+02   -0.12393E+00 69000   0.142E+00    0.261E+01
DAV:  22    -0.670931462521E+03   -0.90642E+01   -0.12031E+00 64344   0.152E+00    0.227E+01
DAV:  23    -0.682958309107E+03   -0.12027E+02   -0.13151E+00 66024   0.150E+00    0.213E+01
DAV:  24    -0.705352707904E+03   -0.22394E+02   -0.49837E+00 69240   0.252E+00    0.227E+01
DAV:  25    -0.736839414927E+03   -0.31487E+02   -0.15873E+01 68928   0.444E+00    0.217E+01
DAV:  26    -0.789174291148E+03   -0.52335E+02   -0.49565E+01 67440   0.715E+00    0.192E+01
DAV:  27    -0.811102163797E+03   -0.21928E+02   -0.20017E+01 73728   0.461E+00    0.205E+01
DAV:  28    -0.812944707745E+03   -0.18425E+01   -0.71464E+00 69216   0.293E+00    0.193E+01
DAV:  29    -0.822661095649E+03   -0.97164E+01   -0.17750E+00 67680   0.185E+00    0.145E+01
DAV:  30    -0.827588595323E+03   -0.49275E+01   -0.33903E+00 66456   0.210E+00    0.128E+01
DAV:  31    -0.831585730828E+03   -0.39971E+01   -0.11336E+00 65184   0.128E+00    0.969E+00
DAV:  32    -0.835071074971E+03   -0.34853E+01   -0.84850E-01 70848   0.111E+00    0.769E+00
DAV:  33    -0.836132365679E+03   -0.10613E+01   -0.98813E-01 68184   0.119E+00    0.579E+00
DAV:  34    -0.834348932479E+03    0.17834E+01   -0.70445E-01 68136   0.934E-01    0.548E+00
DAV:  35    -0.836180235520E+03   -0.18313E+01   -0.63482E-01 69336   0.959E-01    0.660E+00
DAV:  36    -0.837264336514E+03   -0.10841E+01   -0.10316E-01 61944   0.464E-01    0.503E+00
DAV:  37    -0.838659460205E+03   -0.13951E+01   -0.68583E-02 70080   0.364E-01    0.433E+00
DAV:  38    -0.839489181127E+03   -0.82972E+00   -0.48200E-02 69744   0.273E-01    0.325E+00
DAV:  39    -0.839964849530E+03   -0.47567E+00   -0.70712E-02 69480   0.369E-01    0.268E+00
DAV:  40    -0.840229198678E+03   -0.26435E+00   -0.13371E-01 66072   0.385E-01    0.166E+00
DAV:  41    -0.840910176383E+03   -0.68098E+00   -0.75334E-02 67704   0.299E-01    0.845E-01
DAV:  42    -0.841161149295E+03   -0.25097E+00   -0.56274E-02 64584   0.235E-01    0.929E-01
DAV:  43    -0.841363925750E+03   -0.20278E+00   -0.17661E-02 70272   0.137E-01    0.999E-01
DAV:  44    -0.841652956643E+03   -0.28903E+00   -0.10084E-02 65448   0.902E-02    0.863E-01
DAV:  45    -0.841712550636E+03   -0.59594E-01   -0.36300E-03 72432   0.710E-02    0.539E-01
DAV:  46    -0.841757380751E+03   -0.44830E-01   -0.22586E-03 68760   0.555E-02    0.276E-01
DAV:  47    -0.841814829723E+03   -0.57449E-01   -0.12655E-03 67608   0.393E-02    0.171E-01
DAV:  48    -0.841904906745E+03   -0.90077E-01   -0.15575E-03 67296   0.365E-02    0.136E-01
DAV:  49    -0.841909127673E+03   -0.42209E-02   -0.40525E-04 73488   0.231E-02    0.956E-02
DAV:  50    -0.841908981957E+03    0.14572E-03   -0.42577E-04 70464   0.226E-02    0.972E-02
DAV:  51    -0.841905553042E+03    0.34289E-02   -0.56487E-04 69408   0.234E-02    0.603E-02
DAV:  52    -0.841903632257E+03    0.19208E-02   -0.45721E-04 70800   0.199E-02    0.417E-02
DAV:  53    -0.841902214699E+03    0.14176E-02   -0.39893E-04 70440   0.186E-02    0.367E-02
DAV:  54    -0.841898079222E+03    0.41355E-02   -0.58102E-04 69744   0.225E-02    0.344E-02
DAV:  55    -0.841896077690E+03    0.20015E-02   -0.16237E-04 67920   0.124E-02    0.434E-02
DAV:  56    -0.841896064117E+03    0.13573E-04   -0.21488E-04 63960   0.130E-02    0.362E-02
DAV:  57    -0.841896947214E+03   -0.88310E-03   -0.17303E-04 64608   0.119E-02    0.256E-02
DAV:  58    -0.841899931131E+03   -0.29839E-02   -0.11553E-04 59424   0.104E-02    0.204E-02
DAV:  59    -0.841901667332E+03   -0.17362E-02   -0.18406E-05 43584   0.569E-03    0.185E-02
DAV:  60    -0.841903182263E+03   -0.15149E-02   -0.16223E-05 44208   0.519E-03    0.177E-02
DAV:  61    -0.841906833266E+03   -0.36510E-02   -0.79269E-05 57288   0.808E-03    0.168E-02
DAV:  62    -0.841906972661E+03   -0.13940E-03   -0.20666E-04 64608   0.126E-02    0.167E-02
DAV:  63    -0.841907134567E+03   -0.16191E-03   -0.28913E-04 69240   0.145E-02    0.155E-02
DAV:  64    -0.841907061869E+03    0.72699E-04   -0.34831E-04 69960   0.158E-02    0.131E-02
DAV:  65    -0.841906543087E+03    0.51878E-03   -0.57951E-05 52344   0.771E-03    0.936E-03
DAV:  66    -0.841907107826E+03   -0.56474E-03   -0.12516E-05 38784   0.526E-03    0.644E-03
DAV:  67    -0.841907382530E+03   -0.27470E-03   -0.13730E-05 40440   0.397E-03    0.529E-03
DAV:  68    -0.841907374424E+03    0.81054E-05   -0.85785E-06 39768   0.381E-03
   1 F= -.84190737E+03 E0= -.84186676E+03  d E =-.812301E-01  mag=     0.8715
