 vasp.6.3.2 27Jun22 (build Apr 27 2024 20:17:35) complex                        
  
 executed on             LinuxIFC date 2025.03.20  18:40:43
 running on  120 total cores
 distrk:  each k-point on  120 cores,    1 groups
 distr:  one band on NCORE=   5 cores,   24 groups


--------------------------------------------------------------------------------------------------------


 INCAR:
   SYSTEM = IrO2-110	
   ENCUT = 500
   ALGO = Normal
   NELMIN = 6
   NELM = 300
   NELMDL = -8
   EDIFF = 1.0E-5
   LREAL = AUTO
   AMIN = 0.01
   PREC = Accurate
   ISPIN = 2
   NGX = 108
   NGY = 72
   NGZ = 640
   ADDGRID = .TRUE.
   LASPH = .TRUE.
   NSW = 0
   EDIFFG = -0.025
   IBRION = 2
   ISIF = 0
   POTIM = 0.50
   ISMEAR = 0
   SIGMA = 0.0500
   LORBIT = 10
   NEDOS = 6001
   NWRITE = 1
   LWAVE = .FALSE.
   LCHARG = .TRUE.
   LAECHG = .TRUE.
   NCORE = 5
   LPLANE = .TRUE.

 POTCAR:    PAW_PBE H_GW 21Apr2008                
 POTCAR:    PAW_PBE Ir_sv_GW 23Mar2010            
 POTCAR:    PAW_PBE O_GW_new 19Mar2012            
 -----------------------------------------------------------------------------
|                                                                             |
|           W    W    AA    RRRRR   N    N  II  N    N   GGGG   !!!           |
|           W    W   A  A   R    R  NN   N  II  NN   N  G    G  !!!           |
|           W    W  A    A  R    R  N N  N  II  N N  N  G       !!!           |
|           W WW W  AAAAAA  RRRRR   N  N N  II  N  N N  G  GGG   !            |
|           WW  WW  A    A  R   R   N   NN  II  N   NN  G    G                |
|           W    W  A    A  R    R  N    N  II  N    N   GGGG   !!!           |
|                                                                             |
|     You use a magnetic or noncollinear calculation, but did not specify     |
|     the initial magnetic moment with the MAGMOM tag. Note that a            |
|     default of 1 will be used for all atoms. This ferromagnetic setup       |
|     may break the symmetry of the crystal, in particular it may rule        |
|     out finding an antiferromagnetic solution. Thence, we recommend         |
|     setting the initial magnetic moment manually or verifying carefully     |
|     that this magnetic setup is desired.                                    |
|                                                                             |
 -----------------------------------------------------------------------------

 -----------------------------------------------------------------------------
|                                                                             |
|           W    W    AA    RRRRR   N    N  II  N    N   GGGG   !!!           |
|           W    W   A  A   R    R  NN   N  II  NN   N  G    G  !!!           |
|           W    W  A    A  R    R  N N  N  II  N N  N  G       !!!           |
|           W WW W  AAAAAA  RRRRR   N  N N  II  N  N N  G  GGG   !            |
|           WW  WW  A    A  R   R   N   NN  II  N   NN  G    G                |
|           W    W  A    A  R    R  N    N  II  N    N   GGGG   !!!           |
|                                                                             |
|     For optimal performance we recommend to set                             |
|       NCORE = 2 up to number-of-cores-per-socket                            |
|     NCORE specifies how many cores store one orbital (NPAR=cpu/NCORE).      |
|     This setting can greatly improve the performance of VASP for DFT.       |
|     The default, NCORE=1 might be grossly inefficient on modern             |
|     multi-core architectures or massively parallel machines. Do your        |
|     own testing! More info at https://www.vasp.at/wiki/index.php/NCORE      |
|     Unfortunately you need to use the default for GW and RPA                |
|     calculations (for HF NCORE is supported but not extensively tested      |
|     yet).                                                                   |
|                                                                             |
 -----------------------------------------------------------------------------

 POTCAR:    PAW_PBE H_GW 21Apr2008                
  local pseudopotential read in
  kinetic energy density of atom read in
  atomic valenz-charges read in
  non local Contribution for L=           0  read in
    real space projection operators read in
  non local Contribution for L=           0  read in
    real space projection operators read in
  non local Contribution for L=           1  read in
    real space projection operators read in
  non local Contribution for L=           1  read in
    real space projection operators read in
  non local Contribution for L=           2  read in
    real space projection operators read in
    PAW grid and wavefunctions read in
 
   number of l-projection  operators is LMAX  =           5
   number of lm-projection operators is LMMAX =          13
 
 POTCAR:    PAW_PBE Ir_sv_GW 23Mar2010            
  local pseudopotential read in
  partial core-charges read in
  partial kinetic energy density read in
  kinetic energy density of atom read in
  atomic valenz-charges read in
  non local Contribution for L=           0  read in
    real space projection operators read in
  non local Contribution for L=           0  read in
    real space projection operators read in
  non local Contribution for L=           0  read in
    real space projection operators read in
  non local Contribution for L=           1  read in
    real space projection operators read in
  non local Contribution for L=           1  read in
    real space projection operators read in
  non local Contribution for L=           2  read in
    real space projection operators read in
  non local Contribution for L=           2  read in
    real space projection operators read in
  non local Contribution for L=           3  read in
    real space projection operators read in
    PAW grid and wavefunctions read in
 
   number of l-projection  operators is LMAX  =           8
   number of lm-projection operators is LMMAX =          26
 
 POTCAR:    PAW_PBE O_GW_new 19Mar2012            
  local pseudopotential read in
  partial core-charges read in
  partial kinetic energy density read in
  kinetic energy density of atom read in
  atomic valenz-charges read in
  non local Contribution for L=           0  read in
    real space projection operators read in
  non local Contribution for L=           0  read in
    real space projection operators read in
  non local Contribution for L=           0  read in
    real space projection operators read in
  non local Contribution for L=           1  read in
    real space projection operators read in
  non local Contribution for L=           1  read in
    real space projection operators read in
  non local Contribution for L=           1  read in
    real space projection operators read in
  non local Contribution for L=           2  read in
    real space projection operators read in
  non local Contribution for L=           2  read in
    real space projection operators read in
    PAW grid and wavefunctions read in
 
   number of l-projection  operators is LMAX  =           8
   number of lm-projection operators is LMMAX =          22
 
 Optimization of the real space projectors (new method)

 maximal supplied QI-value         = 34.20
 optimisation between [QCUT,QGAM] = [ 11.29, 22.57] = [ 35.68,142.71] Ry 
 Optimized for a Real-space Cutoff    1.39 Angstroem

   l    n(q)    QCUT    max X(q) W(low)/X(q) W(high)/X(q)  e(spline) 
   0      9    11.287    26.161    0.83E-04    0.13E-04    0.69E-06
   0      9    11.287    15.773    0.76E-04    0.14E-04    0.67E-06
   1      9    11.287     3.232    0.52E-04    0.72E-04    0.76E-06
   1      9    11.287     2.453    0.58E-04    0.31E-04    0.62E-06
   2      8    11.287     6.749    0.12E-03    0.49E-03    0.66E-06
 Optimization of the real space projectors (new method)

 maximal supplied QI-value         = 16.25
 optimisation between [QCUT,QGAM] = [ 11.38, 22.75] = [ 36.24,144.96] Ry 
 Optimized for a Real-space Cutoff    1.56 Angstroem

   l    n(q)    QCUT    max X(q) W(low)/X(q) W(high)/X(q)  e(spline) 
   0     11    11.376   331.533    0.45E-04    0.10E-03    0.18E-05
   0     11    11.376   348.190    0.46E-04    0.10E-03    0.18E-05
   0     11    11.376     6.927    0.35E-04    0.83E-04    0.16E-05
   1     10    11.376     2.497    0.49E-05    0.43E-05    0.65E-07
   1     10    11.376     2.823    0.91E-05    0.21E-04    0.27E-06
   2     10    11.376    64.269    0.20E-03    0.53E-03    0.84E-06
   2     10    11.376    59.672    0.20E-03    0.54E-03    0.85E-06
   3      9    11.376     4.004    0.24E-03    0.21E-03    0.44E-06
 Optimization of the real space projectors (new method)

 maximal supplied QI-value         = 23.62
 optimisation between [QCUT,QGAM] = [ 11.34, 22.68] = [ 36.00,144.00] Ry 
 Optimized for a Real-space Cutoff    1.66 Angstroem

   l    n(q)    QCUT    max X(q) W(low)/X(q) W(high)/X(q)  e(spline) 
   0     11    11.338   116.464    0.17E-03    0.30E-03    0.79E-05
   0     11    11.338   116.329    0.16E-03    0.29E-03    0.76E-05
   0     11    11.338     0.942    0.79E-04    0.14E-03    0.33E-05
   1     11    11.338    54.336    0.24E-03    0.89E-03    0.12E-04
   1     11    11.338    48.242    0.24E-03    0.87E-03    0.12E-04
   1     11    11.338     2.381    0.18E-03    0.63E-03    0.86E-05
   2     10    11.338     2.237    0.15E-04    0.16E-04    0.66E-06
   2     10    11.338     2.457    0.37E-04    0.22E-04    0.97E-06
  PAW_PBE H_GW 21Apr2008                :
 energy of atom  1       EATOM=  -12.4884
 kinetic energy error for atom=    0.0109 (will be added to EATOM!!)
  PAW_PBE Ir_sv_GW 23Mar2010            :
 energy of atom  2       EATOM=-2883.8065
 kinetic energy error for atom=    0.0635 (will be added to EATOM!!)
  PAW_PBE O_GW_new 19Mar2012            :
 energy of atom  3       EATOM= -432.3788
 kinetic energy error for atom=    0.0278 (will be added to EATOM!!)
 
 
 POSCAR: Ir36 H6 O78
  positions in direct lattice
  velocities in cartesian coordinates
 exchange correlation table for  LEXCH =        8
   RHO(1)=    0.500       N(1)  =     2000
   RHO(2)=  100.500       N(2)  =     4000
 
 POSCAR: Ir36 H6 O78
  positions in direct lattice
  velocities in cartesian coordinates
 
 POSCAR: Ir36 H6 O78
  positions in direct lattice
  velocities in cartesian coordinates
 


--------------------------------------------------------------------------------------------------------


 ion  position               nearest neighbor table
   1  0.911  0.250  0.117- 115 0.98
   2  0.089  0.750  0.482- 116 0.98
   3  0.578  0.250  0.117- 119 0.98
   4  0.422  0.750  0.482- 120 0.98
   5  0.245  0.250  0.117- 117 0.98
   6  0.755  0.750  0.482- 118 0.98
   7  0.165  0.750  0.158-  44 1.97  43 1.97  46 1.97  52 1.97  49 2.02  50 2.02   9 3.18   8 3.18

   8  0.499  0.750  0.158-  45 1.97  44 1.97  47 1.97  53 1.97  50 2.02  51 2.02   7 3.18   9 3.18

   9  0.832  0.750  0.158-  43 1.97  45 1.97  48 1.97  54 1.97  51 2.02  49 2.02   7 3.18   8 3.18

  10  0.998  0.250  0.158- 115 1.93  55 1.99  54 2.00  48 2.00  46 2.01  52 2.01  11 3.18  12 3.18

  11  0.331  0.250  0.158- 117 1.93  56 1.99  52 2.00  46 2.00  47 2.01  53 2.01  12 3.18  10 3.18

  12  0.665  0.250  0.158- 119 1.93  57 1.99  53 2.00  47 2.00  48 2.01  54 2.01  11 3.18  10 3.18

  13  0.166  0.250  0.215-  58 1.98  64 1.98  56 2.00  61 2.00  55 2.01  62 2.01  15 3.18  14 3.18

  14  0.499  0.250  0.215-  59 1.98  65 1.98  57 2.00  62 2.00  56 2.01  63 2.01  13 3.18  15 3.18

  15  0.833  0.250  0.215-  60 1.98  66 1.98  55 2.00  63 2.00  57 2.01  61 2.01  13 3.18  14 3.18

  16  0.999  0.750  0.215-  49 1.97  67 1.98  58 2.01  64 2.01  66 2.01  60 2.01  17 3.18  18 3.18

  17  0.333  0.750  0.215-  50 1.97  68 1.98  59 2.01  65 2.01  58 2.01  64 2.01  18 3.18  16 3.18

  18  0.666  0.750  0.215-  51 1.97  69 1.98  66 2.01  60 2.01  65 2.01  59 2.01  17 3.18  16 3.18

  19  0.167  0.750  0.271-  70 1.97  76 1.97  67 2.01  68 2.01  73 2.01  74 2.01  21 3.18  20 3.18

  20  0.500  0.750  0.271-  71 1.97  77 1.97  68 2.01  69 2.01  75 2.01  74 2.01  19 3.18  21 3.18

  21  0.833  0.750  0.271-  72 1.97  78 1.97  67 2.01  69 2.01  73 2.01  75 2.01  19 3.18  20 3.18

  22  0.000  0.250  0.271-  79 1.97  61 1.97  78 2.01  70 2.01  72 2.01  76 2.01  23 3.18  24 3.18

  23  0.333  0.250  0.271-  80 1.97  62 1.97  71 2.01  77 2.01  76 2.01  70 2.01  24 3.18  22 3.18

  24  0.667  0.250  0.271-  81 1.97  63 1.97  77 2.01  71 2.01  72 2.01  78 2.01  23 3.18  22 3.18

  25  0.167  0.250  0.328-  82 1.97  88 1.97  79 2.01  80 2.01  85 2.01  86 2.01  27 3.18  26 3.18

  26  0.500  0.250  0.328-  83 1.97  89 1.97  80 2.01  81 2.01  87 2.01  86 2.01  25 3.18  27 3.18

  27  0.833  0.250  0.328-  84 1.97  90 1.97  79 2.01  81 2.01  85 2.01  87 2.01  25 3.18  26 3.18

  28  0.000  0.750  0.328-  73 1.97  91 1.97  90 2.01  82 2.01  84 2.01  88 2.01  29 3.18  30 3.18

  29  0.333  0.750  0.328-  74 1.97  92 1.97  83 2.01  89 2.01  88 2.01  82 2.01  30 3.18  28 3.18

  30  0.667  0.750  0.328-  75 1.97  93 1.97  89 2.01  83 2.01  84 2.01  90 2.01  29 3.18  28 3.18

  31  0.167  0.750  0.384-  94 1.98 100 1.98  97 2.00  92 2.00  98 2.01  91 2.01  33 3.18  32 3.18

  32  0.501  0.750  0.384-  95 1.98 101 1.98  98 2.00  93 2.00  99 2.01  92 2.01  31 3.18  33 3.18

  33  0.834  0.750  0.384-  96 1.98 102 1.98  99 2.00  91 2.00  97 2.01  93 2.01  31 3.18  32 3.18

  34  0.001  0.250  0.385- 103 1.97  85 1.98 102 2.01  96 2.01  94 2.01 100 2.01  35 3.18  36 3.18

  35  0.334  0.250  0.385- 104 1.97  86 1.98 100 2.01  94 2.01  95 2.01 101 2.01  36 3.18  34 3.18

  36  0.667  0.250  0.385- 105 1.97  87 1.98 101 2.01  95 2.01 102 2.01  96 2.01  35 3.18  34 3.18

  37  0.168  0.250  0.441- 109 1.97 110 1.97 106 1.97 112 1.97 104 2.02 103 2.02  39 3.18  38 3.18

  38  0.501  0.250  0.441- 110 1.97 111 1.97 107 1.97 113 1.97 105 2.02 104 2.02  37 3.18  39 3.18

  39  0.835  0.250  0.441- 111 1.97 109 1.97 108 1.97 114 1.97 103 2.02 105 2.02  37 3.18  38 3.18

  40  0.002  0.750  0.441- 116 1.93  97 1.99 106 2.00 112 2.00 114 2.01 108 2.01  41 3.18  42 3.18

  41  0.335  0.750  0.441- 120 1.93  98 1.99 107 2.00 113 2.00 112 2.01 106 2.01  42 3.18  40 3.18

  42  0.669  0.750  0.441- 118 1.93  99 1.99 108 2.00 114 2.00 113 2.01 107 2.01  41 3.18  40 3.18

  43  0.998  0.750  0.137-   9 1.97   7 1.97
  44  0.332  0.750  0.137-   7 1.97   8 1.97
  45  0.665  0.750  0.137-   8 1.97   9 1.97
  46  0.165  0.058  0.159-   7 1.97  11 2.00  10 2.01
  47  0.499  0.058  0.159-   8 1.97  12 2.00  11 2.01
  48  0.832  0.058  0.159-   9 1.97  10 2.00  12 2.01
  49  0.999  0.750  0.180-  16 1.97   7 2.02   9 2.02
  50  0.332  0.750  0.180-  17 1.97   8 2.02   7 2.02
  51  0.665  0.750  0.180-  18 1.97   9 2.02   8 2.02
  52  0.165  0.442  0.159-   7 1.97  11 2.00  10 2.01
  53  0.499  0.442  0.159-   8 1.97  12 2.00  11 2.01
  54  0.832  0.442  0.159-   9 1.97  10 2.00  12 2.01
  55  0.999  0.250  0.193-  10 1.99  15 2.00  13 2.01
  56  0.332  0.250  0.193-  11 1.99  13 2.00  14 2.01
  57  0.666  0.250  0.193-  12 1.99  14 2.00  15 2.01
  58  0.166  0.559  0.215-  13 1.98  16 2.01  17 2.01
  59  0.499  0.559  0.215-  14 1.98  17 2.01  18 2.01
  60  0.832  0.559  0.215-  15 1.98  18 2.01  16 2.01
  61  0.999  0.250  0.237-  22 1.97  13 2.00  15 2.01
  62  0.333  0.250  0.237-  23 1.97  14 2.00  13 2.01
  63  0.666  0.250  0.237-  24 1.97  15 2.00  14 2.01
  64  0.166  0.941  0.215-  13 1.98  16 2.01  17 2.01
  65  0.499  0.941  0.215-  14 1.98  17 2.01  18 2.01
  66  0.832  0.941  0.215-  15 1.98  18 2.01  16 2.01
  67  0.000  0.750  0.250-  16 1.98  19 2.01  21 2.01
  68  0.333  0.750  0.250-  17 1.98  20 2.01  19 2.01
  69  0.667  0.750  0.250-  18 1.98  20 2.01  21 2.01
  70  0.167  0.058  0.271-  19 1.97  22 2.01  23 2.01
  71  0.500  0.058  0.271-  20 1.97  23 2.01  24 2.01
  72  0.833  0.058  0.271-  21 1.97  22 2.01  24 2.01
  73  0.000  0.750  0.293-  28 1.97  21 2.01  19 2.01
  74  0.333  0.750  0.293-  29 1.97  20 2.01  19 2.01
  75  0.667  0.750  0.293-  30 1.97  20 2.01  21 2.01
  76  0.167  0.442  0.271-  19 1.97  22 2.01  23 2.01
  77  0.500  0.442  0.271-  20 1.97  24 2.01  23 2.01
  78  0.833  0.442  0.271-  21 1.97  22 2.01  24 2.01
  79  0.000  0.250  0.306-  22 1.97  25 2.01  27 2.01
  80  0.333  0.250  0.306-  23 1.97  26 2.01  25 2.01
  81  0.667  0.250  0.306-  24 1.97  26 2.01  27 2.01
  82  0.167  0.558  0.328-  25 1.97  28 2.01  29 2.01
  83  0.500  0.558  0.328-  26 1.97  29 2.01  30 2.01
  84  0.833  0.558  0.328-  27 1.97  28 2.01  30 2.01
  85  0.000  0.250  0.350-  34 1.98  27 2.01  25 2.01
  86  0.333  0.250  0.350-  35 1.98  26 2.01  25 2.01
  87  0.667  0.250  0.350-  36 1.98  26 2.01  27 2.01
  88  0.167  0.942  0.328-  25 1.97  28 2.01  29 2.01
  89  0.500  0.942  0.328-  26 1.97  30 2.01  29 2.01
  90  0.833  0.942  0.328-  27 1.97  28 2.01  30 2.01
  91  0.001  0.750  0.363-  28 1.97  33 2.00  31 2.01
  92  0.334  0.750  0.363-  29 1.97  31 2.00  32 2.01
  93  0.667  0.750  0.363-  30 1.97  32 2.00  33 2.01
  94  0.168  0.059  0.385-  31 1.98  35 2.01  34 2.01
  95  0.501  0.059  0.385-  32 1.98  36 2.01  35 2.01
  96  0.834  0.059  0.385-  33 1.98  34 2.01  36 2.01
  97  0.001  0.750  0.406-  40 1.99  31 2.00  33 2.01
  98  0.334  0.750  0.406-  41 1.99  32 2.00  31 2.01
  99  0.668  0.750  0.406-  42 1.99  33 2.00  32 2.01
 100  0.168  0.441  0.385-  31 1.98  35 2.01  34 2.01
 101  0.501  0.441  0.385-  32 1.98  36 2.01  35 2.01
 102  0.834  0.441  0.385-  33 1.98  34 2.01  36 2.01
 103  0.001  0.250  0.419-  34 1.97  39 2.02  37 2.02
 104  0.335  0.250  0.419-  35 1.97  37 2.02  38 2.02
 105  0.668  0.250  0.419-  36 1.97  38 2.02  39 2.02
 106  0.168  0.558  0.441-  37 1.97  40 2.00  41 2.01
 107  0.501  0.558  0.441-  38 1.97  41 2.00  42 2.01
 108  0.835  0.558  0.441-  39 1.97  42 2.00  40 2.01
 109  0.002  0.250  0.462-  37 1.97  39 1.97
 110  0.335  0.250  0.462-  38 1.97  37 1.97
 111  0.668  0.250  0.462-  39 1.97  38 1.97
 112  0.168  0.942  0.441-  37 1.97  40 2.00  41 2.01
 113  0.501  0.942  0.441-  38 1.97  41 2.00  42 2.01
 114  0.835  0.942  0.441-  39 1.97  42 2.00  40 2.01
 115  0.007  0.250  0.124-   1 0.98  10 1.93
 116  0.993  0.750  0.475-   2 0.98  40 1.93
 117  0.340  0.250  0.124-   5 0.98  11 1.93
 118  0.660  0.750  0.475-   6 0.98  42 1.93
 119  0.673  0.250  0.124-   3 0.98  12 1.93
 120  0.327  0.750  0.475-   4 0.98  41 1.93
 
  LATTYP: Found a simple orthorhombic cell.
 ALAT       =     6.4022918039
 B/A-ratio  =     1.4889259653
 C/A-ratio  =     8.8429110168
  
  Lattice vectors:
  
 A1 = (  -0.0000000000,  -6.4022918039,   0.0000000000)
 A2 = (   9.5325385041,   0.0000000000,   0.0000000000)
 A3 = (   0.0000000000,   0.0000000000,  56.6148967251)


Analysis of symmetry for initial positions (statically):
=====================================================================
 Subroutine PRICEL returns following result:
 
  LATTYP: Found a simple orthorhombic cell.
 ALAT       =     3.1775128347
 B/A-ratio  =     2.0148751986
 C/A-ratio  =    17.8173620912
  
  Lattice vectors:
  
 A1 = (   3.1775128347,   0.0000000000,   0.0000000000)
 A2 = (   0.0000000000,   6.4022918039,   0.0000000000)
 A3 = (   0.0000000000,   0.0000000000,  56.6148967251)
 
   3 primitive cells build up your supercell.
 

 Routine SETGRP: Setting up the symmetry group for a 
 simple orthorhombic supercell.


 Subroutine GETGRP returns: Found  4 space group operations
 (whereof  1 operations were pure point group operations)
 out of a pool of  8 trial point group operations.


The static configuration has the point symmetry C_1 .
 The point group associated with its full space group is C_2h.


Analysis of symmetry for dynamics (positions and initial velocities):
=====================================================================
 Subroutine PRICEL returns following result:
 
  LATTYP: Found a simple orthorhombic cell.
 ALAT       =     3.1775128347
 B/A-ratio  =     2.0148751986
 C/A-ratio  =    17.8173620912
  
  Lattice vectors:
  
 A1 = (   3.1775128347,   0.0000000000,   0.0000000000)
 A2 = (   0.0000000000,   6.4022918039,   0.0000000000)
 A3 = (   0.0000000000,   0.0000000000,  56.6148967251)
 
   3 primitive cells build up your supercell.
 

 Routine SETGRP: Setting up the symmetry group for a 
 simple orthorhombic supercell.


 Subroutine GETGRP returns: Found  4 space group operations
 (whereof  1 operations were pure point group operations)
 out of a pool of  8 trial point group operations.


The dynamic configuration has the point symmetry C_1 .
 The point group associated with its full space group is C_2h.


Analysis of constrained symmetry for selective dynamics:
=====================================================================
 Subroutine PRICEL returns following result:
 
  LATTYP: Found a simple orthorhombic cell.
 ALAT       =     3.1775128347
 B/A-ratio  =     2.0148751986
 C/A-ratio  =    17.8173620912
  
  Lattice vectors:
  
 A1 = (   3.1775128347,   0.0000000000,   0.0000000000)
 A2 = (   0.0000000000,   6.4022918039,   0.0000000000)
 A3 = (   0.0000000000,   0.0000000000,  56.6148967251)
 
   3 primitive cells build up your supercell.
 

 Routine SETGRP: Setting up the symmetry group for a 
 simple orthorhombic supercell.


 Subroutine GETGRP returns: Found  4 space group operations
 (whereof  1 operations were pure point group operations)
 out of a pool of  8 trial point group operations.


The constrained configuration has the point symmetry C_1 .
 The point group associated with its full space group is C_2h.


Analysis of structural, dynamic, and magnetic symmetry:
=====================================================================
 Subroutine PRICEL returns following result:
 
  LATTYP: Found a simple orthorhombic cell.
 ALAT       =     3.1775128347
 B/A-ratio  =     2.0148751986
 C/A-ratio  =    17.8173620912
  
  Lattice vectors:
  
 A1 = (   3.1775128347,   0.0000000000,   0.0000000000)
 A2 = (   0.0000000000,   6.4022918039,   0.0000000000)
 A3 = (   0.0000000000,   0.0000000000,  56.6148967251)
 
   3 primitive cells build up your supercell.
 

 Routine SETGRP: Setting up the symmetry group for a 
 simple orthorhombic supercell.


 Subroutine GETGRP returns: Found  4 space group operations
 (whereof  1 operations were pure point group operations)
 out of a pool of  8 trial point group operations.


The overall configuration has the point symmetry C_1 .
 The point group associated with its full space group is C_2h.


 Subroutine INISYM returns: Found  4 space group operations
 (whereof  1 operations are pure point group operations),
 and found     3 'primitive' translations


----------------------------------------------------------------------------------------

                                     Primitive cell                                     

  volume of cell :    1151.7375

  direct lattice vectors                    reciprocal lattice vectors
     3.177512835  0.000000000  0.000000000     0.314711553 -0.000000000  0.000000000
     0.000000000  6.402291804  0.000000000     0.000000000  0.156194068  0.000000000
     0.000000000  0.000000000 56.614896725    -0.000000000 -0.000000000  0.017663196

  length of vectors
     3.177512835  6.402291804 56.614896725     0.314711553  0.156194068  0.017663196

  position of ions in fractional coordinates (direct lattice)
     0.734460729  0.250000000  0.117369748
     0.265539271  0.750000000  0.481978787
     0.495880419  0.750000000  0.157900767
     0.994383863  0.250000000  0.158172190
     0.497530247  0.250000000  0.214933412
     0.997763909  0.750000000  0.214665893
     0.500000000  0.750000000  0.271403839
     1.000000000  0.250000000  0.271403839
     0.500000000  0.250000000  0.327946306
     1.000000000  0.750000000  0.327946306
     0.502469753  0.750000000  0.384416733
     0.002236091  0.250000000  0.384684252
     0.504119581  0.250000000  0.441449378
     0.005616137  0.750000000  0.441177955
     0.995401656  0.750000000  0.137296835
     0.495549243  0.058337369  0.158539070
     0.995988569  0.750000000  0.179862908
     0.495549243  0.441662631  0.158539070
     0.997127311  0.250000000  0.193336768
     0.497471901  0.558634125  0.214845797
     0.997938508  0.250000000  0.236536044
     0.497471901  0.941365875  0.214845797
     1.000000000  0.750000000  0.249724761
     0.500000000  0.058293842  0.271403839
     1.000000000  0.750000000  0.293082917
     0.500000000  0.441706158  0.271403839
     1.000000000  0.250000000  0.306267228
     0.500000000  0.558293842  0.327946306
     1.000000000  0.250000000  0.349625384
     0.500000000  0.941706158  0.327946306
     0.002061492  0.750000000  0.362814101
     0.502528099  0.058634125  0.384504348
     0.002872689  0.750000000  0.406013377
     0.502528099  0.441365875  0.384504348
     0.004011431  0.250000000  0.419487237
     0.504450757  0.558337369  0.440811075
     0.004598344  0.250000000  0.462053310
     0.504450757  0.941662631  0.440811075
     0.019596892  0.250000000  0.124065626
     0.980403108  0.750000000  0.475282908

  ion indices of the primitive-cell ions
   primitive index   ion index
                 1           1
                 2           6
                 3           9
                 4          10
                 5          15
                 6          16
                 7          21
                 8          22
                 9          27
                10          28
                11          33
                12          34
                13          39
                14          40
                15          43
                16          48
                17          49
                18          54
                19          55
                20          60
                21          61
                22          66
                23          67
                24          72
                25          73
                26          78
                27          79
                28          84
                29          85
                30          90
                31          91
                32          96
                33          97
                34         102
                35         103
                36         108
                37         109
                38         114
                39         115
                40         116

----------------------------------------------------------------------------------------

 
 
 KPOINTS: Automatic mesh                          

Automatic generation of k-mesh.
 Grid dimensions read from file:
 generate k-points for:    6    8    1

 Generating k-lattice:

  Cartesian coordinates                     Fractional coordinates (reciprocal lattice)
     0.017483975 -0.000000000  0.000000000     0.166666667  0.000000000  0.000000000
     0.000000000  0.019524258  0.000000000     0.000000000  0.125000000  0.000000000
    -0.000000000 -0.000000000  0.017663196     0.000000000  0.000000000  1.000000000

  Length of vectors
     0.017483975  0.019524258  0.017663196

  Shift w.r.t. Gamma in fractional coordinates (k-lattice)
     0.000000000  0.000000000  0.000000000

 
 Subroutine IBZKPT returns following result:
 ===========================================
 
 Found     20 irreducible k-points:
 
 Following reciprocal coordinates:
            Coordinates               Weight
  0.000000  0.000000  0.000000      1.000000
  0.166667 -0.000000  0.000000      2.000000
  0.333333 -0.000000  0.000000      2.000000
  0.500000 -0.000000  0.000000      1.000000
  0.000000  0.125000  0.000000      2.000000
  0.166667  0.125000  0.000000      4.000000
  0.333333  0.125000  0.000000      4.000000
  0.500000  0.125000  0.000000      2.000000
  0.000000  0.250000  0.000000      2.000000
  0.166667  0.250000  0.000000      4.000000
  0.333333  0.250000  0.000000      4.000000
  0.500000  0.250000  0.000000      2.000000
  0.000000  0.375000  0.000000      2.000000
  0.166667  0.375000  0.000000      4.000000
  0.333333  0.375000  0.000000      4.000000
  0.500000  0.375000  0.000000      2.000000
  0.000000  0.500000  0.000000      1.000000
  0.166667  0.500000  0.000000      2.000000
  0.333333  0.500000  0.000000      2.000000
  0.500000  0.500000  0.000000      1.000000
 
 Following cartesian coordinates:
            Coordinates               Weight
  0.000000  0.000000  0.000000      1.000000
  0.017484 -0.000000  0.000000      2.000000
  0.034968 -0.000000  0.000000      2.000000
  0.052452 -0.000000  0.000000      1.000000
  0.000000  0.019524  0.000000      2.000000
  0.017484  0.019524  0.000000      4.000000
  0.034968  0.019524  0.000000      4.000000
  0.052452  0.019524  0.000000      2.000000
  0.000000  0.039049  0.000000      2.000000
  0.017484  0.039049  0.000000      4.000000
  0.034968  0.039049  0.000000      4.000000
  0.052452  0.039049  0.000000      2.000000
  0.000000  0.058573  0.000000      2.000000
  0.017484  0.058573  0.000000      4.000000
  0.034968  0.058573  0.000000      4.000000
  0.052452  0.058573  0.000000      2.000000
  0.000000  0.078097  0.000000      1.000000
  0.017484  0.078097  0.000000      2.000000
  0.034968  0.078097  0.000000      2.000000
  0.052452  0.078097  0.000000      1.000000
 


--------------------------------------------------------------------------------------------------------




 Dimension of arrays:
   k-points           NKPTS =     20   k-points in BZ     NKDIM =     20   number of bands    NBANDS=    720
   number of dos      NEDOS =   6001   number of ions     NIONS =    120
   non local maximal  LDIM  =      8   non local SUM 2l+1 LMDIM =     26
   total plane-waves  NPLWV = ******
   max r-space proj   IRMAX =  27620   max aug-charges    IRDMAX= 386720
   dimension x,y,z NGX =   108 NGY =   72 NGZ =  640
   dimension x,y,z NGXF=   216 NGYF=  144 NGZF= 1280
   support grid    NGXF=   432 NGYF=  288 NGZF= 2560
   ions per type =               6  36  78
   NGX,Y,Z   is equivalent  to a cutoff of  18.84, 18.70, 18.79 a.u.
   NGXF,Y,Z  is equivalent  to a cutoff of  37.67, 37.39, 37.59 a.u.

 Based on PREC, I would recommend the following setting:
   dimension x,y,z NGX =    70 NGY =   48 NGZ =  420

 SYSTEM =  IrO2-110	                               
 POSCAR =  Ir36 H6 O78                             

 Startparameter for this run:
   NWRITE =      1    write-flag & timer
   PREC   = accura    normal or accurate (medium, high low for compatibility)
   ISTART =      0    job   : 0-new  1-cont  2-samecut
   ICHARG =      2    charge: 1-file 2-atom 10-const
   ISPIN  =      2    spin polarized calculation?
   LNONCOLLINEAR =      F non collinear calculations
   LSORBIT =      F    spin-orbit coupling
   INIWAV =      1    electr: 0-lowe 1-rand  2-diag
   LASPH  =      T    aspherical Exc in radial PAW
 Electronic Relaxation 1
   ENCUT  =  500.0 eV  36.75 Ry    6.06 a.u.  17.38 11.67103.22*2*pi/ulx,y,z
   ENINI  =  500.0     initial cutoff
   ENAUG  = 1139.6 eV  augmentation charge cutoff
   NELM   =    300;   NELMIN=  6; NELMDL= -8     # of ELM steps 
   EDIFF  = 0.1E-04   stopping-criterion for ELM
   LREAL  =      T    real-space projection
   NLSPLINE    = F    spline interpolate recip. space projectors
   LCOMPAT=      F    compatible to vasp.4.4
   GGA_COMPAT  = T    GGA compatible to vasp.4.4-vasp.4.6
   LMAXPAW     = -100 max onsite density
   LMAXMIX     =    2 max onsite mixed and CHGCAR
   VOSKOWN=      0    Vosko Wilk Nusair interpolation
   ROPT   =   -0.00025  -0.00025  -0.00025
 Ionic relaxation
   EDIFFG = -.3E-01   stopping-criterion for IOM
   NSW    =      0    number of steps for IOM
   NBLOCK =      1;   KBLOCK =      1    inner block; outer block 
   IBRION =     -1    ionic relax: 0-MD 1-quasi-New 2-CG
   NFREE  =      1    steps in history (QN), initial steepest desc. (CG)
   ISIF   =      0    stress and relaxation
   IWAVPR =     10    prediction:  0-non 1-charg 2-wave 3-comb
   ISYM   =      2    0-nonsym 1-usesym 2-fastsym
   LCORR  =      T    Harris-Foulkes like correction to forces

   POTIM  = 0.5000    time-step for ionic-motion
   TEIN   =    0.0    initial temperature
   TEBEG  =    0.0;   TEEND  =   0.0 temperature during run
   SMASS  =  -3.00    Nose mass-parameter (am)
   estimated Nose-frequenzy (Omega)   =  0.10E-29 period in steps = 0.13E+47 mass=  -0.208E-26a.u.
   SCALEE = 1.0000    scale energy and forces
   NPACO  =    256;   APACO  = 10.0  distance and # of slots for P.C.
   PSTRESS=    0.0 pullay stress

  Mass of Ions in am
   POMASS =   1.00192.22 16.00
  Ionic Valenz
   ZVAL   =   1.00 17.00  6.00
  Atomic Wigner-Seitz radii
   RWIGS  =  -1.00 -1.00 -1.00
  virtual crystal weights 
   VCA    =   1.00  1.00  1.00
   NELECT =    1086.0000    total number of electrons
   NUPDOWN=      -1.0000    fix difference up-down

 DOS related values:
   EMIN   =  10.00;   EMAX   =-10.00  energy-range for DOS
   EFERMI =   0.00
   ISMEAR =     0;   SIGMA  =   0.05  broadening in eV -4-tet -1-fermi 0-gaus

 Electronic relaxation 2 (details)
   IALGO  =     38    algorithm
   LDIAG  =      T    sub-space diagonalisation (order eigenvalues)
   LSUBROT=      F    optimize rotation matrix (better conditioning)
   TURBO    =      0    0=normal 1=particle mesh
   IRESTART =      0    0=no restart 2=restart with 2 vectors
   NREBOOT  =      0    no. of reboots
   NMIN     =      0    reboot dimension
   EREF     =   0.00    reference energy to select bands
   IMIX   =      4    mixing-type and parameters
     AMIX     =   0.40;   BMIX     =  1.00
     AMIX_MAG =   1.60;   BMIX_MAG =  1.00
     AMIN     =   0.01
     WC   =   100.;   INIMIX=   1;  MIXPRE=   1;  MAXMIX= -45

 Intra band minimization:
   WEIMIN = 0.0000     energy-eigenvalue tresh-hold
   EBREAK =  0.35E-08  absolut break condition
   DEPER  =   0.30     relativ break condition  

   TIME   =   0.40     timestep for ELM

  volume/ion in A,a.u.               =      28.79       194.31
  Fermi-wavevector in a.u.,A,eV,Ry     =   1.113080  2.103417 16.856910  1.238948
  Thomas-Fermi vector in A             =   2.249661
 
 Write flags
   LWAVE        =      F    write WAVECAR
   LDOWNSAMPLE  =      F    k-point downsampling of WAVECAR
   LCHARG       =      T    write CHGCAR
   LVTOT        =      F    write LOCPOT, total local potential
   LVHAR        =      F    write LOCPOT, Hartree potential only
   LELF         =      F    write electronic localiz. function (ELF)
   LORBIT       =     10    0 simple, 1 ext, 2 COOP (PROOUT), +10 PAW based schemes


 Dipole corrections
   LMONO  =      F    monopole corrections only (constant potential shift)
   LDIPOL =      F    correct potential (dipole corrections)
   IDIPOL =      0    1-x, 2-y, 3-z, 4-all directions 
   EPSILON=  1.0000000 bulk dielectric constant

 Exchange correlation treatment:
   GGA     =    --    GGA type
   LEXCH   =     8    internal setting for exchange type
   LIBXC   =     F    Libxc                    
   VOSKOWN =     0    Vosko Wilk Nusair interpolation
   LHFCALC =     F    Hartree Fock is set to
   LHFONE  =     F    Hartree Fock one center treatment
   AEXX    =    0.0000 exact exchange contribution

 Linear response parameters
   LEPSILON=     F    determine dielectric tensor
   LRPA    =     F    only Hartree local field effects (RPA)
   LNABLA  =     F    use nabla operator in PAW spheres
   LVEL    =     F    velocity operator in full k-point grid
   CSHIFT  =0.1000    complex shift for real part using Kramers Kronig
   OMEGAMAX=  -1.0    maximum frequency
   DEG_THRESHOLD= 0.2000000E-02 threshold for treating states as degnerate
   RTIME   =   -0.100 relaxation time in fs
  (WPLASMAI=    0.000 imaginary part of plasma frequency in eV, 0.658/RTIME)
   DFIELD  = 0.0000000 0.0000000 0.0000000 field for delta impulse in time
 
  Optional k-point grid parameters
   LKPOINTS_OPT  =     F    use optional k-point grid
   KPOINTS_OPT_MODE=     1    mode for optional k-point grid
 
 Orbital magnetization related:
   ORBITALMAG=     F  switch on orbital magnetization
   LCHIMAG   =     F  perturbation theory with respect to B field
   DQ        =  0.001000  dq finite difference perturbation B field
   LLRAUG    =     F  two centre corrections for induced B field



--------------------------------------------------------------------------------------------------------


 Static calculation
 charge density and potential will be updated during run
 spin polarized calculation
 Variant of blocked Davidson
 Davidson routine will perform the subspace rotation
 perform sub-space diagonalisation
    after iterative eigenvector-optimisation
 modified Broyden-mixing scheme, WC =      100.0
 initial mixing is a Kerker type mixing with AMIX =  0.4000 and BMIX =      1.0000
 Hartree-type preconditioning will be used
 using additional bands          177
 real space projection scheme for non local part
 use partial core corrections
 calculate Harris-corrections to forces 
   (improved forces if not selfconsistent)
 use gradient corrections 
 use of overlap-Matrix (Vanderbilt PP)
 Gauss-broadening in eV      SIGMA  =   0.05


--------------------------------------------------------------------------------------------------------


  energy-cutoff  :      500.00
  volume of cell :     3455.21
      direct lattice vectors                 reciprocal lattice vectors
     9.532538504  0.000000000  0.000000000     0.104903851 -0.000000000  0.000000000
     0.000000000  6.402291804  0.000000000     0.000000000  0.156194068  0.000000000
     0.000000000  0.000000000 56.614896725    -0.000000000 -0.000000000  0.017663196

  length of vectors
     9.532538504  6.402291804 56.614896725     0.104903851  0.156194068  0.017663196


 
 k-points in units of 2pi/SCALE and weight: Automatic mesh                          
   0.00000000  0.00000000  0.00000000       0.021
   0.01748398 -0.00000000  0.00000000       0.042
   0.03496795 -0.00000000  0.00000000       0.042
   0.05245193 -0.00000000  0.00000000       0.021
   0.00000000  0.01952426  0.00000000       0.042
   0.01748398  0.01952426  0.00000000       0.083
   0.03496795  0.01952426  0.00000000       0.083
   0.05245193  0.01952426  0.00000000       0.042
   0.00000000  0.03904852  0.00000000       0.042
   0.01748398  0.03904852  0.00000000       0.083
   0.03496795  0.03904852  0.00000000       0.083
   0.05245193  0.03904852  0.00000000       0.042
   0.00000000  0.05857278  0.00000000       0.042
   0.01748398  0.05857278  0.00000000       0.083
   0.03496795  0.05857278  0.00000000       0.083
   0.05245193  0.05857278  0.00000000       0.042
   0.00000000  0.07809703  0.00000000       0.021
   0.01748398  0.07809703  0.00000000       0.042
   0.03496795  0.07809703  0.00000000       0.042
   0.05245193  0.07809703  0.00000000       0.021
 
 k-points in reciprocal lattice and weights: Automatic mesh                          
   0.00000000  0.00000000  0.00000000       0.021
   0.16666667 -0.00000000  0.00000000       0.042
   0.33333333 -0.00000000  0.00000000       0.042
   0.50000000 -0.00000000  0.00000000       0.021
   0.00000000  0.12500000  0.00000000       0.042
   0.16666667  0.12500000  0.00000000       0.083
   0.33333333  0.12500000  0.00000000       0.083
   0.50000000  0.12500000  0.00000000       0.042
   0.00000000  0.25000000  0.00000000       0.042
   0.16666667  0.25000000  0.00000000       0.083
   0.33333333  0.25000000  0.00000000       0.083
   0.50000000  0.25000000  0.00000000       0.042
   0.00000000  0.37500000  0.00000000       0.042
   0.16666667  0.37500000  0.00000000       0.083
   0.33333333  0.37500000  0.00000000       0.083
   0.50000000  0.37500000  0.00000000       0.042
   0.00000000  0.50000000  0.00000000       0.021
   0.16666667  0.50000000  0.00000000       0.042
   0.33333333  0.50000000  0.00000000       0.042
   0.50000000  0.50000000  0.00000000       0.021
 
 position of ions in fractional coordinates (direct lattice) 
   0.91148691  0.25000000  0.11736975
   0.08851309  0.75000000  0.48197879
   0.57815358  0.25000000  0.11736975
   0.42184642  0.75000000  0.48197879
   0.24482024  0.25000000  0.11736975
   0.75517976  0.75000000  0.48197879
   0.16529347  0.75000000  0.15790077
   0.49862681  0.75000000  0.15790077
   0.83196014  0.75000000  0.15790077
   0.99812795  0.25000000  0.15817219
   0.33146129  0.25000000  0.15817219
   0.66479462  0.25000000  0.15817219
   0.16584342  0.25000000  0.21493341
   0.49917675  0.25000000  0.21493341
   0.83251008  0.25000000  0.21493341
   0.99925464  0.75000000  0.21466589
   0.33258797  0.75000000  0.21466589
   0.66592130  0.75000000  0.21466589
   0.16666667  0.75000000  0.27140384
   0.50000000  0.75000000  0.27140384
   0.83333333  0.75000000  0.27140384
   0.00000000  0.25000000  0.27140384
   0.33333333  0.25000000  0.27140384
   0.66666667  0.25000000  0.27140384
   0.16666667  0.25000000  0.32794631
   0.50000000  0.25000000  0.32794631
   0.83333333  0.25000000  0.32794631
   0.00000000  0.75000000  0.32794631
   0.33333333  0.75000000  0.32794631
   0.66666667  0.75000000  0.32794631
   0.16748992  0.75000000  0.38441673
   0.50082325  0.75000000  0.38441673
   0.83415658  0.75000000  0.38441673
   0.00074536  0.25000000  0.38468425
   0.33407870  0.25000000  0.38468425
   0.66741203  0.25000000  0.38468425
   0.16803986  0.25000000  0.44144938
   0.50137319  0.25000000  0.44144938
   0.83470653  0.25000000  0.44144938
   0.00187205  0.75000000  0.44117796
   0.33520538  0.75000000  0.44117796
   0.66853871  0.75000000  0.44117796
   0.99846722  0.75000000  0.13729684
   0.33180055  0.75000000  0.13729684
   0.66513389  0.75000000  0.13729684
   0.16518308  0.05833737  0.15853907
   0.49851641  0.05833737  0.15853907
   0.83184975  0.05833737  0.15853907
   0.99866286  0.75000000  0.17986291
   0.33199619  0.75000000  0.17986291
   0.66532952  0.75000000  0.17986291
   0.16518308  0.44166263  0.15853907
   0.49851641  0.44166263  0.15853907
   0.83184975  0.44166263  0.15853907
   0.99904244  0.25000000  0.19333677
   0.33237577  0.25000000  0.19333677
   0.66570910  0.25000000  0.19333677
   0.16582397  0.55863413  0.21484580
   0.49915730  0.55863413  0.21484580
   0.83249063  0.55863413  0.21484580
   0.99931284  0.25000000  0.23653604
   0.33264617  0.25000000  0.23653604
   0.66597950  0.25000000  0.23653604
   0.16582397  0.94136587  0.21484580
   0.49915730  0.94136587  0.21484580
   0.83249063  0.94136587  0.21484580
   0.00000000  0.75000000  0.24972476
   0.33333333  0.75000000  0.24972476
   0.66666667  0.75000000  0.24972476
   0.16666667  0.05829384  0.27140384
   0.50000000  0.05829384  0.27140384
   0.83333333  0.05829384  0.27140384
   0.00000000  0.75000000  0.29308292
   0.33333333  0.75000000  0.29308292
   0.66666667  0.75000000  0.29308292
   0.16666667  0.44170616  0.27140384
   0.50000000  0.44170616  0.27140384
   0.83333333  0.44170616  0.27140384
   0.00000000  0.25000000  0.30626723
   0.33333333  0.25000000  0.30626723
   0.66666667  0.25000000  0.30626723
   0.16666667  0.55829384  0.32794631
   0.50000000  0.55829384  0.32794631
   0.83333333  0.55829384  0.32794631
   0.00000000  0.25000000  0.34962538
   0.33333333  0.25000000  0.34962538
   0.66666667  0.25000000  0.34962538
   0.16666667  0.94170616  0.32794631
   0.50000000  0.94170616  0.32794631
   0.83333333  0.94170616  0.32794631
   0.00068716  0.75000000  0.36281410
   0.33402050  0.75000000  0.36281410
   0.66735383  0.75000000  0.36281410
   0.16750937  0.05863413  0.38450435
   0.50084270  0.05863413  0.38450435
   0.83417603  0.05863413  0.38450435
   0.00095756  0.75000000  0.40601338
   0.33429090  0.75000000  0.40601338
   0.66762423  0.75000000  0.40601338
   0.16750937  0.44136587  0.38450435
   0.50084270  0.44136587  0.38450435
   0.83417603  0.44136587  0.38450435
   0.00133714  0.25000000  0.41948724
   0.33467048  0.25000000  0.41948724
   0.66800381  0.25000000  0.41948724
   0.16815025  0.55833737  0.44081108
   0.50148359  0.55833737  0.44081108
   0.83481692  0.55833737  0.44081108
   0.00153278  0.25000000  0.46205331
   0.33486611  0.25000000  0.46205331
   0.66819945  0.25000000  0.46205331
   0.16815025  0.94166263  0.44081108
   0.50148359  0.94166263  0.44081108
   0.83481692  0.94166263  0.44081108
   0.00653230  0.25000000  0.12406563
   0.99346770  0.75000000  0.47528291
   0.33986563  0.25000000  0.12406563
   0.66013437  0.75000000  0.47528291
   0.67319896  0.25000000  0.12406563
   0.32680104  0.75000000  0.47528291
 
 position of ions in cartesian coordinates  (Angst):
   8.68878406  1.60057295  6.64487614
   0.84375444  4.80171885 27.28717922
   5.51127123  1.60057295  6.64487614
   4.02126727  4.80171885 27.28717922
   2.33375839  1.60057295  6.64487614
   7.19878011  4.80171885 27.28717922
   1.57566640  4.80171885  8.93953560
   4.75317923  4.80171885  8.93953560
   7.93069207  4.80171885  8.93953560
   9.51469316  1.60057295  8.95490219
   3.15966749  1.60057295  8.95490219
   6.33718032  1.60057295  8.95490219
   1.58090874  1.60057295 12.16843293
   4.75842158  1.60057295 12.16843293
   7.93593441  1.60057295 12.16843293
   9.52543330  4.80171885 12.15328734
   3.17040763  4.80171885 12.15328734
   6.34792046  4.80171885 12.15328734
   1.58875642  4.80171885 15.36550033
   4.76626925  4.80171885 15.36550033
   7.94378209  4.80171885 15.36550033
   0.00000000  1.60057295 15.36550033
   3.17751283  1.60057295 15.36550033
   6.35502567  1.60057295 15.36550033
   1.58875642  1.60057295 18.56664623
   4.76626925  1.60057295 18.56664623
   7.94378209  1.60057295 18.56664623
   0.00000000  4.80171885 18.56664623
   3.17751283  4.80171885 18.56664623
   6.35502567  4.80171885 18.56664623
   1.59660409  4.80171885 21.76371363
   4.77411693  4.80171885 21.76371363
   7.95162976  4.80171885 21.76371363
   0.00710521  1.60057295 21.77885922
   3.18461804  1.60057295 21.77885922
   6.36213088  1.60057295 21.77885922
   1.60184644  1.60057295 24.99261096
   4.77935927  1.60057295 24.99261096
   7.95687211  1.60057295 24.99261096
   0.01784535  4.80171885 24.97724437
   3.19535818  4.80171885 24.97724437
   6.37287102  4.80171885 24.97724437
   9.51792721  4.80171885  7.77304615
   3.16290154  4.80171885  7.77304615
   6.34041437  4.80171885  7.77304615
   1.57461408  0.37349286  8.97567306
   4.75212691  0.37349286  8.97567306
   7.92963975  0.37349286  8.97567306
   9.51979213  4.80171885 10.18291999
   3.16476646  4.80171885 10.18291999
   6.34227930  4.80171885 10.18291999
   1.57461408  2.82765304  8.97567306
   4.75212691  2.82765304  8.97567306
   7.92963975  2.82765304  8.97567306
   9.52341050  1.60057295 10.94574117
   3.16838483  1.60057295 10.94574117
   6.34589766  1.60057295 10.94574117
   1.58072335  3.57653868 12.16347260
   4.75823618  3.57653868 12.16347260
   7.93574902  3.57653868 12.16347260
   9.52598809  1.60057295 13.39146372
   3.17096242  1.60057295 13.39146372
   6.34847525  1.60057295 13.39146372
   1.58072335  6.02689902 12.16347260
   4.75823618  6.02689902 12.16347260
   7.93574902  6.02689902 12.16347260
   0.00000000  4.80171885 14.13814156
   3.17751283  4.80171885 14.13814156
   6.35502567  4.80171885 14.13814156
   1.58875642  0.37321418 15.36550033
   4.76626925  0.37321418 15.36550033
   7.94378209  0.37321418 15.36550033
   0.00000000  4.80171885 16.59285910
   3.17751283  4.80171885 16.59285910
   6.35502567  4.80171885 16.59285910
   1.58875642  2.82793172 15.36550033
   4.76626925  2.82793172 15.36550033
   7.94378209  2.82793172 15.36550033
   0.00000000  1.60057295 17.33928746
   3.17751283  1.60057295 17.33928746
   6.35502567  1.60057295 17.33928746
   1.58875642  3.57436009 18.56664623
   4.76626925  3.57436009 18.56664623
   7.94378209  3.57436009 18.56664623
   0.00000000  1.60057295 19.79400500
   3.17751283  1.60057295 19.79400500
   6.35502567  1.60057295 19.79400500
   1.58875642  6.02907762 18.56664623
   4.76626925  6.02907762 18.56664623
   7.94378209  6.02907762 18.56664623
   0.00655042  4.80171885 20.54068284
   3.18406325  4.80171885 20.54068284
   6.36157609  4.80171885 20.54068284
   1.59678949  0.37539278 21.76867396
   4.77430232  0.37539278 21.76867396
   7.95181516  0.37539278 21.76867396
   0.00912801  4.80171885 22.98640539
   3.18664084  4.80171885 22.98640539
   6.36415368  4.80171885 22.98640539
   1.59678949  2.82575312 21.76867396
   4.77430232  2.82575312 21.76867396
   7.95181516  2.82575312 21.76867396
   0.01274637  1.60057295 23.74922657
   3.19025921  1.60057295 23.74922657
   6.36777204  1.60057295 23.74922657
   1.60289876  3.57463876 24.95647350
   4.78041159  3.57463876 24.95647350
   7.95792442  3.57463876 24.95647350
   0.01461130  1.60057295 26.15910041
   3.19212413  1.60057295 26.15910041
   6.36963697  1.60057295 26.15910041
   1.60289876  6.02879894 24.95647350
   4.78041159  6.02879894 24.95647350
   7.95792442  6.02879894 24.95647350
   0.06226938  1.60057295  7.02396261
   9.47026913  4.80171885 26.90809276
   3.23978221  1.60057295  7.02396261
   6.29275629  4.80171885 26.90809276
   6.41729504  1.60057295  7.02396261
   3.11524346  4.80171885 26.90809276
 


--------------------------------------------------------------------------------------------------------


 k-point   1 :   0.0000 0.0000 0.0000  plane waves:   87751
 k-point   2 :   0.1667-0.0000 0.0000  plane waves:   87701
 k-point   3 :   0.3333-0.0000 0.0000  plane waves:   87761
 k-point   4 :   0.5000-0.0000 0.0000  plane waves:   87898
 k-point   5 :   0.0000 0.1250 0.0000  plane waves:   87793
 k-point   6 :   0.1667 0.1250 0.0000  plane waves:   87757
 k-point   7 :   0.3333 0.1250 0.0000  plane waves:   87759
 k-point   8 :   0.5000 0.1250 0.0000  plane waves:   87746
 k-point   9 :   0.0000 0.2500 0.0000  plane waves:   87795
 k-point  10 :   0.1667 0.2500 0.0000  plane waves:   87724
 k-point  11 :   0.3333 0.2500 0.0000  plane waves:   87673
 k-point  12 :   0.5000 0.2500 0.0000  plane waves:   87658
 k-point  13 :   0.0000 0.3750 0.0000  plane waves:   87722
 k-point  14 :   0.1667 0.3750 0.0000  plane waves:   87696
 k-point  15 :   0.3333 0.3750 0.0000  plane waves:   87665
 k-point  16 :   0.5000 0.3750 0.0000  plane waves:   87624
 k-point  17 :   0.0000 0.5000 0.0000  plane waves:   87712
 k-point  18 :   0.1667 0.5000 0.0000  plane waves:   87774
 k-point  19 :   0.3333 0.5000 0.0000  plane waves:   87648
 k-point  20 :   0.5000 0.5000 0.0000  plane waves:   87676

 maximum and minimum number of plane-waves per node :     17658    17472

 maximum number of plane-waves:     87898
 maximum index in each direction: 
   IXMAX=   17   IYMAX=   11   IZMAX=  103
   IXMIN=  -17   IYMIN=  -12   IZMIN= -103


 real space projection operators:
  total allocation   :     532312.97 KBytes
  max/ min on nodes  :     108114.34     103989.84


 parallel 3D FFT for wavefunctions:
    minimum data exchange during FFTs selected (reduces bandwidth)
 parallel 3D FFT for charge:
    minimum data exchange during FFTs selected (reduces bandwidth)


 total amount of memory used by VASP MPI-rank0   763622. kBytes
=======================================================================

   base      :      30000. kBytes
   nonlr-proj:     189549. kBytes
   fftplans  :      81440. kBytes
   grid      :     113633. kBytes
   one-center:       1557. kBytes
   wavefun   :     347443. kBytes
 
     INWAV:  cpu time      0.0000: real time      0.0002
 Broyden mixing: mesh for mixing (old mesh)
   NGX = 35   NGY = 23   NGZ =207
  (NGX  =216   NGY  =144   NGZ  =***)
  gives a total of 166635 points

 initial charge density was supplied:
 charge density of overlapping atoms calculated
 number of electron    1086.0000000 magnetization     120.0000000
 keeping initial charge density in first step


--------------------------------------------------------------------------------------------------------


 Maximum index for non-local projection operator         5806
 Maximum index for augmentation-charges         6272 (set IRDMAX)


--------------------------------------------------------------------------------------------------------


 First call to EWALD:  gamma=   0.117
 Maximum number of real-space cells 4x 6x 1
 Maximum number of reciprocal cells 2x 1x 9

    FEWALD:  cpu time      0.0209: real time      0.0212


--------------------------------------- Iteration      1(   1)  ---------------------------------------


    POTLOK:  cpu time      0.7946: real time      0.8540
    SETDIJ:  cpu time      2.0350: real time      2.0898
     EDDAV:  cpu time    646.4153: real time    649.2585
       DOS:  cpu time      0.0166: real time      0.0171
    --------------------------------------------
      LOOP:  cpu time    649.2617: real time    652.2197

 eigenvalue-minimisations  : 68400
 total energy-change (2. order) : 0.1419112E+05  (-0.6134262E+05)
 number of electron    1086.0000000 magnetization     120.0000000
 augmentation part     1086.0000000 magnetization     120.0000000

 Free energy of the ion-electron system (eV)
  ---------------------------------------------------
  alpha Z        PSCENC =      2250.43195047
  Ewald energy   TEWEN  =   3370597.32313264
  -Hartree energ DENC   =  -3495638.35540606
  -exchange      EXHF   =         0.00000000
  -V(xc)+E(xc)   XCENC  =      5074.46174309
  PAW double counting   =    114623.74691407  -112145.41341840
  entropy T*S    EENTRO =        -0.05336630
  eigenvalues    EBANDS =     -8184.01530613
  atomic energy  EATOM  =    137612.99007200
  Solvation  Ecorr_sol  =         0.00000000
  ---------------------------------------------------
  free energy    TOTEN  =     14191.11631539 eV

  energy without entropy =    14191.16968169  energy(sigma->0) =    14191.14299854


--------------------------------------------------------------------------------------------------------




--------------------------------------- Iteration      1(   2)  ---------------------------------------


     EDDAV:  cpu time    721.8375: real time    723.7018
       DOS:  cpu time      0.0300: real time      0.0300
    --------------------------------------------
      LOOP:  cpu time    721.8672: real time    723.7316

 eigenvalue-minimisations  : 78672
 total energy-change (2. order) :-0.1380766E+05  (-0.1312442E+05)
 number of electron    1086.0000000 magnetization     120.0000000
 augmentation part     1086.0000000 magnetization     120.0000000

 Free energy of the ion-electron system (eV)
  ---------------------------------------------------
  alpha Z        PSCENC =      2250.43195047
  Ewald energy   TEWEN  =   3370597.32313264
  -Hartree energ DENC   =  -3495638.35540606
  -exchange      EXHF   =         0.00000000
  -V(xc)+E(xc)   XCENC  =      5074.46174309
  PAW double counting   =    114623.74691407  -112145.41341840
  entropy T*S    EENTRO =        -0.05740086
  eigenvalues    EBANDS =    -21991.67221082
  atomic energy  EATOM  =    137612.99007200
  Solvation  Ecorr_sol  =         0.00000000
  ---------------------------------------------------
  free energy    TOTEN  =       383.45537614 eV

  energy without entropy =      383.51277699  energy(sigma->0) =      383.48407657


--------------------------------------------------------------------------------------------------------




--------------------------------------- Iteration      1(   3)  ---------------------------------------


     EDDAV:  cpu time    653.3438: real time    655.0447
       DOS:  cpu time      0.0131: real time      0.0131
    --------------------------------------------
      LOOP:  cpu time    653.3569: real time    655.0579

 eigenvalue-minimisations  : 69480
 total energy-change (2. order) :-0.1392654E+04  (-0.1358765E+04)
 number of electron    1086.0000000 magnetization     120.0000000
 augmentation part     1086.0000000 magnetization     120.0000000

 Free energy of the ion-electron system (eV)
  ---------------------------------------------------
  alpha Z        PSCENC =      2250.43195047
  Ewald energy   TEWEN  =   3370597.32313264
  -Hartree energ DENC   =  -3495638.35540606
  -exchange      EXHF   =         0.00000000
  -V(xc)+E(xc)   XCENC  =      5074.46174309
  PAW double counting   =    114623.74691407  -112145.41341840
  entropy T*S    EENTRO =        -0.08797026
  eigenvalues    EBANDS =    -23384.29564600
  atomic energy  EATOM  =    137612.99007200
  Solvation  Ecorr_sol  =         0.00000000
  ---------------------------------------------------
  free energy    TOTEN  =     -1009.19862845 eV

  energy without entropy =    -1009.11065819  energy(sigma->0) =    -1009.15464332


--------------------------------------------------------------------------------------------------------




--------------------------------------- Iteration      1(   4)  ---------------------------------------


     EDDAV:  cpu time    738.5709: real time    740.4922
       DOS:  cpu time      0.0146: real time      0.0146
    --------------------------------------------
      LOOP:  cpu time    738.5854: real time    740.5068

 eigenvalue-minimisations  : 81024
 total energy-change (2. order) :-0.5517916E+02  (-0.5381365E+02)
 number of electron    1086.0000000 magnetization     120.0000000
 augmentation part     1086.0000000 magnetization     120.0000000

 Free energy of the ion-electron system (eV)
  ---------------------------------------------------
  alpha Z        PSCENC =      2250.43195047
  Ewald energy   TEWEN  =   3370597.32313264
  -Hartree energ DENC   =  -3495638.35540606
  -exchange      EXHF   =         0.00000000
  -V(xc)+E(xc)   XCENC  =      5074.46174309
  PAW double counting   =    114623.74691407  -112145.41341840
  entropy T*S    EENTRO =        -0.10051858
  eigenvalues    EBANDS =    -23439.46226128
  atomic energy  EATOM  =    137612.99007200
  Solvation  Ecorr_sol  =         0.00000000
  ---------------------------------------------------
  free energy    TOTEN  =     -1064.37779205 eV

  energy without entropy =    -1064.27727346  energy(sigma->0) =    -1064.32753276


--------------------------------------------------------------------------------------------------------




--------------------------------------- Iteration      1(   5)  ---------------------------------------


     EDDAV:  cpu time    693.7438: real time    696.5171
       DOS:  cpu time      0.0125: real time      0.0255
    --------------------------------------------
      LOOP:  cpu time    693.7573: real time    696.5437

 eigenvalue-minimisations  : 74880
 total energy-change (2. order) :-0.1700829E+01  (-0.1671018E+01)
 number of electron    1086.0000000 magnetization     120.0000000
 augmentation part     1086.0000000 magnetization     120.0000000

 Free energy of the ion-electron system (eV)
  ---------------------------------------------------
  alpha Z        PSCENC =      2250.43195047
  Ewald energy   TEWEN  =   3370597.32313264
  -Hartree energ DENC   =  -3495638.35540606
  -exchange      EXHF   =         0.00000000
  -V(xc)+E(xc)   XCENC  =      5074.46174309
  PAW double counting   =    114623.74691407  -112145.41341840
  entropy T*S    EENTRO =        -0.10087978
  eigenvalues    EBANDS =    -23441.16272879
  atomic energy  EATOM  =    137612.99007200
  Solvation  Ecorr_sol  =         0.00000000
  ---------------------------------------------------
  free energy    TOTEN  =     -1066.07862076 eV

  energy without entropy =    -1065.97774098  energy(sigma->0) =    -1066.02818087


--------------------------------------------------------------------------------------------------------




--------------------------------------- Iteration      1(   6)  ---------------------------------------


     EDDAV:  cpu time    735.7251: real time    739.7970
       DOS:  cpu time      0.0207: real time      0.0230
    --------------------------------------------
      LOOP:  cpu time    735.7454: real time    739.8196

 eigenvalue-minimisations  : 80376
 total energy-change (2. order) :-0.7268954E-01  (-0.7232754E-01)
 number of electron    1086.0000000 magnetization     120.0000000
 augmentation part     1086.0000000 magnetization     120.0000000

 Free energy of the ion-electron system (eV)
  ---------------------------------------------------
  alpha Z        PSCENC =      2250.43195047
  Ewald energy   TEWEN  =   3370597.32313264
  -Hartree energ DENC   =  -3495638.35540606
  -exchange      EXHF   =         0.00000000
  -V(xc)+E(xc)   XCENC  =      5074.46174309
  PAW double counting   =    114623.74691407  -112145.41341840
  entropy T*S    EENTRO =        -0.10080982
  eigenvalues    EBANDS =    -23441.23548830
  atomic energy  EATOM  =    137612.99007200
  Solvation  Ecorr_sol  =         0.00000000
  ---------------------------------------------------
  free energy    TOTEN  =     -1066.15131030 eV

  energy without entropy =    -1066.05050048  energy(sigma->0) =    -1066.10090539


--------------------------------------------------------------------------------------------------------




--------------------------------------- Iteration      1(   7)  ---------------------------------------


     EDDAV:  cpu time    687.7600: real time    689.5389
       DOS:  cpu time      0.0154: real time      0.0154
    --------------------------------------------
      LOOP:  cpu time    687.7749: real time    689.5537

 eigenvalue-minimisations  : 73896
 total energy-change (2. order) :-0.3200789E-02  (-0.3195731E-02)
 number of electron    1086.0000000 magnetization     120.0000000
 augmentation part     1086.0000000 magnetization     120.0000000

 Free energy of the ion-electron system (eV)
  ---------------------------------------------------
  alpha Z        PSCENC =      2250.43195047
  Ewald energy   TEWEN  =   3370597.32313264
  -Hartree energ DENC   =  -3495638.35540606
  -exchange      EXHF   =         0.00000000
  -V(xc)+E(xc)   XCENC  =      5074.46174309
  PAW double counting   =    114623.74691407  -112145.41341840
  entropy T*S    EENTRO =        -0.10080420
  eigenvalues    EBANDS =    -23441.23869471
  atomic energy  EATOM  =    137612.99007200
  Solvation  Ecorr_sol  =         0.00000000
  ---------------------------------------------------
  free energy    TOTEN  =     -1066.15451109 eV

  energy without entropy =    -1066.05370689  energy(sigma->0) =    -1066.10410899


--------------------------------------------------------------------------------------------------------




--------------------------------------- Iteration      1(   8)  ---------------------------------------


     EDDAV:  cpu time    700.0767: real time    701.8789
       DOS:  cpu time      0.0137: real time      0.0137
    CHARGE:  cpu time     36.7103: real time     37.0365
    MIXING:  cpu time      0.0859: real time      0.0863
    --------------------------------------------
      LOOP:  cpu time    736.8866: real time    739.0154

 eigenvalue-minimisations  : 75792
 total energy-change (2. order) :-0.1825271E-03  (-0.1823744E-03)
 number of electron    1086.0000003 magnetization     118.1762423
 augmentation part       47.4435619 magnetization      98.5408065

 Broyden mixing:
  rms(total) = 0.34960E+02    rms(broyden)= 0.34958E+02
  rms(prec ) = 0.34999E+02
  weight for this iteration     100.00

 Free energy of the ion-electron system (eV)
  ---------------------------------------------------
  alpha Z        PSCENC =      2250.43195047
  Ewald energy   TEWEN  =   3370597.32313264
  -Hartree energ DENC   =  -3495638.35540606
  -exchange      EXHF   =         0.00000000
  -V(xc)+E(xc)   XCENC  =      5074.46174309
  PAW double counting   =    114623.74691407  -112145.41341840
  entropy T*S    EENTRO =        -0.10080371
  eigenvalues    EBANDS =    -23441.23887773
  atomic energy  EATOM  =    137612.99007200
  Solvation  Ecorr_sol  =         0.00000000
  ---------------------------------------------------
  free energy    TOTEN  =     -1066.15469362 eV

  energy without entropy =    -1066.05388991  energy(sigma->0) =    -1066.10429176


--------------------------------------------------------------------------------------------------------




--------------------------------------- Iteration      1(   9)  ---------------------------------------


    POTLOK:  cpu time      0.8748: real time      0.9164
    SETDIJ:  cpu time      2.0379: real time      2.0774
     EDDAV:  cpu time    684.7913: real time    688.3276
       DOS:  cpu time      0.0118: real time      0.0292
    CHARGE:  cpu time     36.6085: real time     36.8134
    MIXING:  cpu time      0.0411: real time      0.7434
    --------------------------------------------
      LOOP:  cpu time    724.3654: real time    728.9075

 eigenvalue-minimisations  : 73632
 total energy-change (2. order) : 0.4054527E+03  (-0.1519430E+03)
 number of electron    1086.0000003 magnetization     115.9654248
 augmentation part       44.6098371 magnetization      88.4891838

 Broyden mixing:
  rms(total) = 0.25981E+02    rms(broyden)= 0.25980E+02
  rms(prec ) = 0.25995E+02
  weight for this iteration     100.00

 eigenvalues of (default mixing * dielectric matrix)
  average eigenvalue GAMMA=   1.0313
  1.0313

 Free energy of the ion-electron system (eV)
  ---------------------------------------------------
  alpha Z        PSCENC =      2250.43195047
  Ewald energy   TEWEN  =   3370597.32313264
  -Hartree energ DENC   =  -3494291.78909475
  -exchange      EXHF   =         0.00000000
  -V(xc)+E(xc)   XCENC  =      5178.04272111
  PAW double counting   =    137964.75258840  -135669.21198064
  entropy T*S    EENTRO =        -0.05604280
  eigenvalues    EBANDS =    -24303.18537584
  atomic energy  EATOM  =    137612.99007200
  Solvation  Ecorr_sol  =         0.00000000
  ---------------------------------------------------
  free energy    TOTEN  =      -660.70202939 eV

  energy without entropy =     -660.64598659  energy(sigma->0) =     -660.67400799


--------------------------------------------------------------------------------------------------------




--------------------------------------- Iteration      1(  10)  ---------------------------------------


    POTLOK:  cpu time      0.7793: real time      0.7813
    SETDIJ:  cpu time      2.0340: real time      2.0392
     EDDAV:  cpu time    708.1829: real time    710.0077
       DOS:  cpu time      0.0137: real time      0.0138
    CHARGE:  cpu time     36.5548: real time     36.6486
    MIXING:  cpu time      0.0154: real time      0.1302
    --------------------------------------------
      LOOP:  cpu time    747.5800: real time    749.6207

 eigenvalue-minimisations  : 76728
 total energy-change (2. order) :-0.2204833E+02  (-0.4454684E+02)
 number of electron    1086.0000003 magnetization     112.8394530
 augmentation part       46.1669169 magnetization      94.6783007

 Broyden mixing:
  rms(total) = 0.15602E+02    rms(broyden)= 0.15601E+02
  rms(prec ) = 0.15679E+02
  weight for this iteration     100.00

 eigenvalues of (default mixing * dielectric matrix)
  average eigenvalue GAMMA=   1.3435
  2.1533  0.5337

 Free energy of the ion-electron system (eV)
  ---------------------------------------------------
  alpha Z        PSCENC =      2250.43195047
  Ewald energy   TEWEN  =   3370597.32313264
  -Hartree energ DENC   =  -3494978.83578275
  -exchange      EXHF   =         0.00000000
  -V(xc)+E(xc)   XCENC  =      5170.91625732
  PAW double counting   =    176925.06046605  -174482.63248744
  entropy T*S    EENTRO =        -0.06472949
  eigenvalues    EBANDS =    -23777.93923711
  atomic energy  EATOM  =    137612.99007200
  Solvation  Ecorr_sol  =         0.00000000
  ---------------------------------------------------
  free energy    TOTEN  =      -682.75035831 eV

  energy without entropy =     -682.68562881  energy(sigma->0) =     -682.71799356


--------------------------------------------------------------------------------------------------------




--------------------------------------- Iteration      1(  11)  ---------------------------------------


    POTLOK:  cpu time      0.8504: real time      0.8527
    SETDIJ:  cpu time      2.0311: real time      2.0363
     EDDAV:  cpu time    734.1927: real time    736.0874
       DOS:  cpu time      0.0132: real time      0.0320
    CHARGE:  cpu time     36.7352: real time     36.8300
    MIXING:  cpu time      0.0168: real time      0.0991
    --------------------------------------------
      LOOP:  cpu time    773.8398: real time    775.9378

 eigenvalue-minimisations  : 80040
 total energy-change (2. order) : 0.6545247E+02  (-0.1539070E+02)
 number of electron    1086.0000003 magnetization     111.1665901
 augmentation part       46.4487965 magnetization      96.0691816

 Broyden mixing:
  rms(total) = 0.91612E+01    rms(broyden)= 0.91571E+01
  rms(prec ) = 0.95253E+01
  weight for this iteration     100.00

 eigenvalues of (default mixing * dielectric matrix)
  average eigenvalue GAMMA=   1.2878
  2.6369  0.6132  0.6132

 Free energy of the ion-electron system (eV)
  ---------------------------------------------------
  alpha Z        PSCENC =      2250.43195047
  Ewald energy   TEWEN  =   3370597.32313264
  -Hartree energ DENC   =  -3494721.52626156
  -exchange      EXHF   =         0.00000000
  -V(xc)+E(xc)   XCENC  =      5218.65753209
  PAW double counting   =    207847.20250923  -205380.71246391
  entropy T*S    EENTRO =        -0.05547079
  eigenvalues    EBANDS =    -24041.60889234
  atomic energy  EATOM  =    137612.99007200
  Solvation  Ecorr_sol  =         0.00000000
  ---------------------------------------------------
  free energy    TOTEN  =      -617.29789215 eV

  energy without entropy =     -617.24242136  energy(sigma->0) =     -617.27015676


--------------------------------------------------------------------------------------------------------




--------------------------------------- Iteration      1(  12)  ---------------------------------------


    POTLOK:  cpu time      0.7755: real time      0.7919
    SETDIJ:  cpu time      2.1282: real time      2.1347
     EDDAV:  cpu time    691.5916: real time    693.3784
       DOS:  cpu time      0.0122: real time      0.0122
    CHARGE:  cpu time     36.6429: real time     36.7370
    MIXING:  cpu time      0.0119: real time      0.0201
    --------------------------------------------
      LOOP:  cpu time    731.1620: real time    733.0739

 eigenvalue-minimisations  : 74400
 total energy-change (2. order) : 0.3557116E+02  (-0.4089170E+02)
 number of electron    1086.0000003 magnetization     110.4712941
 augmentation part       45.7998958 magnetization      88.6543716

 Broyden mixing:
  rms(total) = 0.16943E+02    rms(broyden)= 0.16941E+02
  rms(prec ) = 0.17180E+02
  weight for this iteration     100.00

 eigenvalues of (default mixing * dielectric matrix)
  average eigenvalue GAMMA=   1.0617
  2.7838  0.6469  0.6469  0.1694

 Free energy of the ion-electron system (eV)
  ---------------------------------------------------
  alpha Z        PSCENC =      2250.43195047
  Ewald energy   TEWEN  =   3370597.32313264
  -Hartree energ DENC   =  -3494936.26313919
  -exchange      EXHF   =         0.00000000
  -V(xc)+E(xc)   XCENC  =      5253.11353852
  PAW double counting   =    214790.74663675  -212338.60964194
  entropy T*S    EENTRO =        -0.08393832
  eigenvalues    EBANDS =    -23811.37534289
  atomic energy  EATOM  =    137612.99007200
  Solvation  Ecorr_sol  =         0.00000000
  ---------------------------------------------------
  free energy    TOTEN  =      -581.72673196 eV

  energy without entropy =     -581.64279364  energy(sigma->0) =     -581.68476280


--------------------------------------------------------------------------------------------------------




--------------------------------------- Iteration      1(  13)  ---------------------------------------


    POTLOK:  cpu time      0.7522: real time      0.7542
    SETDIJ:  cpu time      2.0231: real time      2.0283
     EDDAV:  cpu time    663.1539: real time    664.8683
       DOS:  cpu time      0.0206: real time      0.0206
    CHARGE:  cpu time     36.7006: real time     36.7950
    MIXING:  cpu time      0.0577: real time      0.0578
    --------------------------------------------
      LOOP:  cpu time    702.7081: real time    704.5242

 eigenvalue-minimisations  : 70560
 total energy-change (2. order) : 0.1162090E+02  (-0.3834211E+01)
 number of electron    1086.0000003 magnetization     109.5622847
 augmentation part       45.1254814 magnetization      90.9012606

 Broyden mixing:
  rms(total) = 0.88255E+01    rms(broyden)= 0.88249E+01
  rms(prec ) = 0.89838E+01
  weight for this iteration     100.00

 eigenvalues of (default mixing * dielectric matrix)
  average eigenvalue GAMMA=   0.9512
  2.8091  0.7585  0.6097  0.2894  0.2894

 Free energy of the ion-electron system (eV)
  ---------------------------------------------------
  alpha Z        PSCENC =      2250.43195047
  Ewald energy   TEWEN  =   3370597.32313264
  -Hartree energ DENC   =  -3494896.24540304
  -exchange      EXHF   =         0.00000000
  -V(xc)+E(xc)   XCENC  =      5245.32927520
  PAW double counting   =    218306.56459680  -215852.93172965
  entropy T*S    EENTRO =        -0.06572908
  eigenvalues    EBANDS =    -23833.50199265
  atomic energy  EATOM  =    137612.99007200
  Solvation  Ecorr_sol  =         0.00000000
  ---------------------------------------------------
  free energy    TOTEN  =      -570.10582729 eV

  energy without entropy =     -570.04009821  energy(sigma->0) =     -570.07296275


--------------------------------------------------------------------------------------------------------




--------------------------------------- Iteration      1(  14)  ---------------------------------------


    POTLOK:  cpu time      0.7803: real time      0.7837
    SETDIJ:  cpu time      2.0084: real time      2.0136
     EDDAV:  cpu time    666.7586: real time    668.4765
       DOS:  cpu time      0.0299: real time      0.0299
    CHARGE:  cpu time     36.4947: real time     36.5882
    MIXING:  cpu time      0.0509: real time      0.0510
    --------------------------------------------
      LOOP:  cpu time    706.1227: real time    707.9429

 eigenvalue-minimisations  : 71304
 total energy-change (2. order) : 0.2471344E+02  (-0.1926949E+01)
 number of electron    1086.0000003 magnetization     109.0959316
 augmentation part       45.0944651 magnetization      90.0296347

 Broyden mixing:
  rms(total) = 0.53329E+01    rms(broyden)= 0.53325E+01
  rms(prec ) = 0.54742E+01
  weight for this iteration     100.00

 eigenvalues of (default mixing * dielectric matrix)
  average eigenvalue GAMMA=   0.8462
  2.7997  0.7700  0.6015  0.3431  0.3431  0.2196

 Free energy of the ion-electron system (eV)
  ---------------------------------------------------
  alpha Z        PSCENC =      2250.43195047
  Ewald energy   TEWEN  =   3370597.32313264
  -Hartree energ DENC   =  -3494878.64554648
  -exchange      EXHF   =         0.00000000
  -V(xc)+E(xc)   XCENC  =      5247.61665648
  PAW double counting   =    217388.09192226  -214934.71895962
  entropy T*S    EENTRO =        -0.05618700
  eigenvalues    EBANDS =    -23828.42542324
  atomic energy  EATOM  =    137612.99007200
  Solvation  Ecorr_sol  =         0.00000000
  ---------------------------------------------------
  free energy    TOTEN  =      -545.39238249 eV

  energy without entropy =     -545.33619549  energy(sigma->0) =     -545.36428899


--------------------------------------------------------------------------------------------------------




--------------------------------------- Iteration      1(  15)  ---------------------------------------


    POTLOK:  cpu time      0.8160: real time      0.8182
    SETDIJ:  cpu time      2.0202: real time      2.0253
     EDDAV:  cpu time    656.2853: real time    657.9801
       DOS:  cpu time      0.0131: real time      0.0132
    CHARGE:  cpu time     36.4927: real time     36.5881
    MIXING:  cpu time      0.0165: real time      0.0165
    --------------------------------------------
      LOOP:  cpu time    695.6438: real time    697.4414

 eigenvalue-minimisations  : 69936
 total energy-change (2. order) : 0.9975782E+00  (-0.8494788E+00)
 number of electron    1086.0000003 magnetization     108.3617807
 augmentation part       44.9518675 magnetization      87.0823113

 Broyden mixing:
  rms(total) = 0.41640E+01    rms(broyden)= 0.41634E+01
  rms(prec ) = 0.42280E+01
  weight for this iteration     100.00

 eigenvalues of (default mixing * dielectric matrix)
  average eigenvalue GAMMA=   0.8196
  2.7812  0.8057  0.4885  0.4885  0.5766  0.2985  0.2985

 Free energy of the ion-electron system (eV)
  ---------------------------------------------------
  alpha Z        PSCENC =      2250.43195047
  Ewald energy   TEWEN  =   3370597.32313264
  -Hartree energ DENC   =  -3494844.63354762
  -exchange      EXHF   =         0.00000000
  -V(xc)+E(xc)   XCENC  =      5243.75395472
  PAW double counting   =    216427.11682451  -213974.52520356
  entropy T*S    EENTRO =        -0.06267699
  eigenvalues    EBANDS =    -23856.78931044
  atomic energy  EATOM  =    137612.99007200
  Solvation  Ecorr_sol  =         0.00000000
  ---------------------------------------------------
  free energy    TOTEN  =      -544.39480425 eV

  energy without entropy =     -544.33212726  energy(sigma->0) =     -544.36346576


--------------------------------------------------------------------------------------------------------




--------------------------------------- Iteration      1(  16)  ---------------------------------------


    POTLOK:  cpu time      0.7906: real time      0.7928
    SETDIJ:  cpu time      2.0388: real time      2.0440
     EDDAV:  cpu time    653.5448: real time    656.5918
       DOS:  cpu time      0.0117: real time      0.0127
    CHARGE:  cpu time     36.5449: real time     36.7301
    MIXING:  cpu time      0.0185: real time      0.0729
    --------------------------------------------
      LOOP:  cpu time    692.9500: real time    696.2450

 eigenvalue-minimisations  : 69576
 total energy-change (2. order) :-0.1724541E+02  (-0.6962019E+00)
 number of electron    1086.0000003 magnetization     107.6127799
 augmentation part       44.8510467 magnetization      83.8627883

 Broyden mixing:
  rms(total) = 0.35264E+01    rms(broyden)= 0.35249E+01
  rms(prec ) = 0.35584E+01
  weight for this iteration     100.00

 eigenvalues of (default mixing * dielectric matrix)
  average eigenvalue GAMMA=   0.8005
  2.7902  0.6257  0.6257  0.8215  0.5599  0.3622  0.3622  0.2563

 Free energy of the ion-electron system (eV)
  ---------------------------------------------------
  alpha Z        PSCENC =      2250.43195047
  Ewald energy   TEWEN  =   3370597.32313264
  -Hartree energ DENC   =  -3494822.85285569
  -exchange      EXHF   =         0.00000000
  -V(xc)+E(xc)   XCENC  =      5228.69408381
  PAW double counting   =    214897.49072229  -212446.09157224
  entropy T*S    EENTRO =        -0.06660878
  eigenvalues    EBANDS =    -23879.55913739
  atomic energy  EATOM  =    137612.99007200
  Solvation  Ecorr_sol  =         0.00000000
  ---------------------------------------------------
  free energy    TOTEN  =      -561.64021288 eV

  energy without entropy =     -561.57360410  energy(sigma->0) =     -561.60690849


--------------------------------------------------------------------------------------------------------




--------------------------------------- Iteration      1(  17)  ---------------------------------------


    POTLOK:  cpu time      0.7612: real time      0.8136
    SETDIJ:  cpu time      2.0201: real time      2.0298
     EDDAV:  cpu time    669.5593: real time    671.2852
       DOS:  cpu time      0.0115: real time      0.0318
    CHARGE:  cpu time     36.5372: real time     36.6313
[...]
      1.58072      3.57654     12.16347         0.017643     -0.018271      0.000292
      4.75824      3.57654     12.16347         0.017643     -0.018271      0.000292
      7.93575      3.57654     12.16347         0.017643     -0.018271      0.000292
      9.52599      1.60057     13.39146         0.015867     -0.000000     -0.003487
      3.17096      1.60057     13.39146         0.015867     -0.000000     -0.003487
      6.34848      1.60057     13.39146         0.015867     -0.000000     -0.003487
      1.58072      6.02690     12.16347         0.017643      0.018271      0.000292
      4.75824      6.02690     12.16347         0.017643      0.018271      0.000292
      7.93575      6.02690     12.16347         0.017643      0.018271      0.000292
      0.00000      4.80172     14.13814        -0.025754     -0.000000     -0.057612
      3.17751      4.80172     14.13814        -0.025754     -0.000000     -0.057612
      6.35503      4.80172     14.13814        -0.025754     -0.000000     -0.057612
      1.58876      0.37321     15.36550        -0.002396     -0.005420     -0.002968
      4.76627      0.37321     15.36550        -0.002396     -0.005420     -0.002968
      7.94378      0.37321     15.36550        -0.002396     -0.005420     -0.002968
      0.00000      4.80172     16.59286        -0.014811     -0.000000     -0.013690
      3.17751      4.80172     16.59286        -0.014811     -0.000000     -0.013690
      6.35503      4.80172     16.59286        -0.014811     -0.000000     -0.013690
      1.58876      2.82793     15.36550        -0.002396      0.005420     -0.002968
      4.76627      2.82793     15.36550        -0.002396      0.005420     -0.002968
      7.94378      2.82793     15.36550        -0.002396      0.005420     -0.002968
      0.00000      1.60057     17.33929         0.014811     -0.000000      0.013690
      3.17751      1.60057     17.33929         0.014811     -0.000000      0.013690
      6.35503      1.60057     17.33929         0.014811     -0.000000      0.013690
      1.58876      3.57436     18.56665         0.002396     -0.005420      0.002968
      4.76627      3.57436     18.56665         0.002396     -0.005420      0.002968
      7.94378      3.57436     18.56665         0.002396     -0.005420      0.002968
      0.00000      1.60057     19.79400         0.025754     -0.000000      0.057612
      3.17751      1.60057     19.79400         0.025754     -0.000000      0.057612
      6.35503      1.60057     19.79400         0.025754     -0.000000      0.057612
      1.58876      6.02908     18.56665         0.002396      0.005420      0.002968
      4.76627      6.02908     18.56665         0.002396      0.005420      0.002968
      7.94378      6.02908     18.56665         0.002396      0.005420      0.002968
      0.00655      4.80172     20.54068        -0.015867     -0.000000      0.003487
      3.18406      4.80172     20.54068        -0.015867     -0.000000      0.003487
      6.36158      4.80172     20.54068        -0.015867     -0.000000      0.003487
      1.59679      0.37539     21.76867        -0.017643     -0.018271     -0.000292
      4.77430      0.37539     21.76867        -0.017643     -0.018271     -0.000292
      7.95182      0.37539     21.76867        -0.017643     -0.018271     -0.000292
      0.00913      4.80172     22.98641        -0.004050     -0.000000      0.012769
      3.18664      4.80172     22.98641        -0.004050     -0.000000      0.012769
      6.36415      4.80172     22.98641        -0.004050     -0.000000      0.012769
      1.59679      2.82575     21.76867        -0.017643      0.018271     -0.000292
      4.77430      2.82575     21.76867        -0.017643      0.018271     -0.000292
      7.95182      2.82575     21.76867        -0.017643      0.018271     -0.000292
      0.01275      1.60057     23.74923        -0.010335     -0.000000     -0.042152
      3.19026      1.60057     23.74923        -0.010335     -0.000000     -0.042152
      6.36777      1.60057     23.74923        -0.010335     -0.000000     -0.042152
      1.60290      3.57464     24.95647        -0.004358     -0.000330     -0.007280
      4.78041      3.57464     24.95647        -0.004358     -0.000330     -0.007280
      7.95792      3.57464     24.95647        -0.004358     -0.000330     -0.007280
      0.01461      1.60057     26.15910        -0.010772     -0.000000      0.004195
      3.19212      1.60057     26.15910        -0.010772     -0.000000      0.004195
      6.36964      1.60057     26.15910        -0.010772     -0.000000      0.004195
      1.60290      6.02880     24.95647        -0.004358      0.000330     -0.007280
      4.78041      6.02880     24.95647        -0.004358      0.000330     -0.007280
      7.95792      6.02880     24.95647        -0.004358      0.000330     -0.007280
      0.06227      1.60057      7.02396         0.001897     -0.000000     -0.028002
      9.47027      4.80172     26.90809        -0.001897     -0.000000      0.028002
      3.23978      1.60057      7.02396         0.001897     -0.000000     -0.028002
      6.29276      4.80172     26.90809        -0.001897     -0.000000      0.028002
      6.41730      1.60057      7.02396         0.001897     -0.000000     -0.028002
      3.11524      4.80172     26.90809        -0.001897     -0.000000      0.028002
 -----------------------------------------------------------------------------------
    total drift:                               -0.002141      0.000000    -17.757476


--------------------------------------------------------------------------------------------------------



  FREE ENERGIE OF THE ION-ELECTRON SYSTEM (eV)
  ---------------------------------------------------
  free  energy   TOTEN  =      -841.90737442 eV

  energy  without entropy=     -841.82614428  energy(sigma->0) =     -841.86675935
 


--------------------------------------------------------------------------------------------------------


    POTLOK:  cpu time      2.7470: real time      2.8205


--------------------------------------------------------------------------------------------------------


     LOOP+:  cpu time  45910.1508: real time  46061.0205
    4ORBIT:  cpu time      0.0002: real time      0.0287



 total charge

# of ion       s       p       d       f       tot
--------------------------------------------------
    1        0.614   0.111   0.002   0.000   0.727
    2        0.614   0.111   0.002   0.000   0.727
    3        0.614   0.111   0.002   0.000   0.727
    4        0.614   0.111   0.002   0.000   0.727
    5        0.614   0.111   0.002   0.000   0.727
    6        0.614   0.111   0.002   0.000   0.727
    7        3.736   6.127   6.102   0.066  16.031
    8        3.736   6.127   6.102   0.066  16.031
    9        3.736   6.127   6.102   0.066  16.031
   10        3.688   6.123   6.137   0.064  16.011
   11        3.688   6.123   6.137   0.064  16.011
   12        3.688   6.123   6.137   0.064  16.011
   13        3.649   6.119   6.176   0.061  16.005
   14        3.649   6.119   6.176   0.061  16.005
   15        3.649   6.119   6.176   0.061  16.005
   16        3.642   6.118   6.175   0.061  15.996
   17        3.642   6.118   6.175   0.061  15.996
   18        3.642   6.118   6.175   0.061  15.996
   19        3.642   6.118   6.178   0.061  15.999
   20        3.642   6.118   6.178   0.061  15.999
   21        3.642   6.118   6.178   0.061  15.999
   22        3.641   6.118   6.180   0.061  16.000
   23        3.641   6.118   6.180   0.061  16.000
   24        3.641   6.118   6.180   0.061  16.000
   25        3.642   6.118   6.178   0.061  15.999
   26        3.642   6.118   6.178   0.061  15.999
   27        3.642   6.118   6.178   0.061  15.999
   28        3.641   6.118   6.180   0.061  16.000
   29        3.641   6.118   6.180   0.061  16.000
   30        3.641   6.118   6.180   0.061  16.000
   31        3.649   6.119   6.176   0.061  16.005
   32        3.649   6.119   6.176   0.061  16.005
   33        3.649   6.119   6.176   0.061  16.005
   34        3.642   6.118   6.175   0.061  15.996
   35        3.642   6.118   6.175   0.061  15.996
   36        3.642   6.118   6.175   0.061  15.996
   37        3.736   6.127   6.102   0.066  16.031
   38        3.736   6.127   6.102   0.066  16.031
   39        3.736   6.127   6.102   0.066  16.031
   40        3.688   6.123   6.137   0.064  16.011
   41        3.688   6.123   6.137   0.064  16.011
   42        3.688   6.123   6.137   0.064  16.011
   43        1.663   3.457   0.028   0.000   5.148
   44        1.663   3.457   0.028   0.000   5.148
   45        1.663   3.457   0.028   0.000   5.148
   46        1.631   3.586   0.035   0.000   5.252
   47        1.631   3.586   0.035   0.000   5.252
   48        1.631   3.586   0.035   0.000   5.252
   49        1.634   3.590   0.034   0.000   5.258
   50        1.634   3.590   0.034   0.000   5.258
   51        1.634   3.590   0.034   0.000   5.258
   52        1.631   3.586   0.035   0.000   5.252
   53        1.631   3.586   0.035   0.000   5.252
   54        1.631   3.586   0.035   0.000   5.252
   55        1.632   3.587   0.035   0.000   5.254
   56        1.632   3.587   0.035   0.000   5.254
   57        1.632   3.587   0.035   0.000   5.254
   58        1.628   3.595   0.036   0.000   5.258
   59        1.628   3.595   0.036   0.000   5.258
   60        1.628   3.595   0.036   0.000   5.258
   61        1.628   3.597   0.036   0.000   5.261
   62        1.628   3.597   0.036   0.000   5.261
   63        1.628   3.597   0.036   0.000   5.261
   64        1.628   3.595   0.036   0.000   5.258
   65        1.628   3.595   0.036   0.000   5.258
   66        1.628   3.595   0.036   0.000   5.258
   67        1.628   3.594   0.035   0.000   5.257
   68        1.628   3.594   0.035   0.000   5.257
   69        1.628   3.594   0.035   0.000   5.257
   70        1.628   3.595   0.036   0.000   5.259
   71        1.628   3.595   0.036   0.000   5.259
   72        1.628   3.595   0.036   0.000   5.259
   73        1.628   3.595   0.036   0.000   5.259
   74        1.628   3.595   0.036   0.000   5.259
   75        1.628   3.595   0.036   0.000   5.259
   76        1.628   3.595   0.036   0.000   5.259
   77        1.628   3.595   0.036   0.000   5.259
   78        1.628   3.595   0.036   0.000   5.259
   79        1.628   3.595   0.036   0.000   5.259
   80        1.628   3.595   0.036   0.000   5.259
   81        1.628   3.595   0.036   0.000   5.259
   82        1.628   3.595   0.036   0.000   5.259
   83        1.628   3.595   0.036   0.000   5.259
   84        1.628   3.595   0.036   0.000   5.259
   85        1.628   3.594   0.035   0.000   5.257
   86        1.628   3.594   0.035   0.000   5.257
   87        1.628   3.594   0.035   0.000   5.257
   88        1.628   3.595   0.036   0.000   5.259
   89        1.628   3.595   0.036   0.000   5.259
   90        1.628   3.595   0.036   0.000   5.259
   91        1.628   3.597   0.036   0.000   5.261
   92        1.628   3.597   0.036   0.000   5.261
   93        1.628   3.597   0.036   0.000   5.261
   94        1.628   3.595   0.036   0.000   5.258
   95        1.628   3.595   0.036   0.000   5.258
   96        1.628   3.595   0.036   0.000   5.258
   97        1.632   3.587   0.035   0.000   5.254
   98        1.632   3.587   0.035   0.000   5.254
   99        1.632   3.587   0.035   0.000   5.254
  100        1.628   3.595   0.036   0.000   5.258
  101        1.628   3.595   0.036   0.000   5.258
  102        1.628   3.595   0.036   0.000   5.258
  103        1.634   3.590   0.034   0.000   5.258
  104        1.634   3.590   0.034   0.000   5.258
  105        1.634   3.590   0.034   0.000   5.258
  106        1.631   3.586   0.035   0.000   5.252
  107        1.631   3.586   0.035   0.000   5.252
  108        1.631   3.586   0.035   0.000   5.252
  109        1.663   3.457   0.028   0.000   5.148
  110        1.663   3.457   0.028   0.000   5.148
  111        1.663   3.457   0.028   0.000   5.148
  112        1.631   3.586   0.035   0.000   5.252
  113        1.631   3.586   0.035   0.000   5.252
  114        1.631   3.586   0.035   0.000   5.252
  115        1.643   3.629   0.036   0.000   5.308
  116        1.643   3.629   0.036   0.000   5.308
  117        1.643   3.629   0.036   0.000   5.308
  118        1.643   3.629   0.036   0.000   5.308
  119        1.643   3.629   0.036   0.000   5.308
  120        1.643   3.629   0.036   0.000   5.308
--------------------------------------------------
tot        263.051 500.619 224.410   2.236 990.315



 magnetization (x)

# of ion       s       p       d       f       tot
--------------------------------------------------
    1       -0.001   0.001  -0.000   0.000   0.000
    2       -0.001   0.001  -0.000   0.000   0.000
    3       -0.001   0.001  -0.000   0.000   0.000
    4       -0.001   0.001  -0.000   0.000   0.000
    5       -0.001   0.001  -0.000   0.000   0.000
    6       -0.001   0.001  -0.000   0.000   0.000
    7       -0.001  -0.000  -0.012  -0.000  -0.013
    8       -0.001  -0.000  -0.012  -0.000  -0.013
    9       -0.001  -0.000  -0.012  -0.000  -0.013
   10        0.003   0.000   0.077   0.000   0.081
   11        0.003   0.000   0.077   0.000   0.081
   12        0.003   0.000   0.077   0.000   0.081
   13       -0.001  -0.000  -0.009   0.000  -0.009
   14       -0.001  -0.000  -0.009   0.000  -0.009
   15       -0.001  -0.000  -0.009   0.000  -0.009
   16        0.000   0.000   0.007  -0.000   0.007
   17        0.000   0.000   0.007  -0.000   0.007
   18        0.000   0.000   0.007  -0.000   0.007
   19        0.000   0.000   0.015   0.000   0.016
   20        0.000   0.000   0.015   0.000   0.016
   21        0.000   0.000   0.015   0.000   0.016
   22       -0.000   0.000  -0.007   0.000  -0.007
   23       -0.000   0.000  -0.007   0.000  -0.007
   24       -0.000   0.000  -0.007   0.000  -0.007
   25        0.000   0.000   0.015   0.000   0.016
   26        0.000   0.000   0.015   0.000   0.016
   27        0.000   0.000   0.015   0.000   0.016
   28       -0.000   0.000  -0.007   0.000  -0.007
   29       -0.000   0.000  -0.007   0.000  -0.007
   30       -0.000   0.000  -0.007   0.000  -0.007
   31       -0.001  -0.000  -0.009   0.000  -0.009
   32       -0.001  -0.000  -0.009   0.000  -0.009
   33       -0.001  -0.000  -0.009   0.000  -0.009
   34        0.000   0.000   0.007  -0.000   0.007
   35        0.000   0.000   0.007  -0.000   0.007
   36        0.000   0.000   0.007  -0.000   0.007
   37       -0.001  -0.000  -0.012  -0.000  -0.013
   38       -0.001  -0.000  -0.012  -0.000  -0.013
   39       -0.001  -0.000  -0.012  -0.000  -0.013
   40        0.003   0.000   0.077   0.000   0.081
   41        0.003   0.000   0.077   0.000   0.081
   42        0.003   0.000   0.077   0.000   0.081
   43        0.000  -0.002  -0.000   0.000  -0.002
   44        0.000  -0.002  -0.000   0.000  -0.002
   45        0.000  -0.002  -0.000   0.000  -0.002
   46       -0.000   0.002   0.000   0.000   0.002
   47       -0.000   0.002   0.000   0.000   0.002
   48       -0.000   0.002   0.000   0.000   0.002
   49        0.000   0.002  -0.000   0.000   0.002
   50        0.000   0.002  -0.000   0.000   0.002
   51        0.000   0.002  -0.000   0.000   0.002
   52       -0.000   0.002   0.000   0.000   0.002
   53       -0.000   0.002   0.000   0.000   0.002
   54       -0.000   0.002   0.000   0.000   0.002
   55        0.000   0.018   0.000   0.000   0.018
   56        0.000   0.018   0.000   0.000   0.018
   57        0.000   0.018   0.000   0.000   0.018
   58       -0.000  -0.002  -0.000   0.000  -0.002
   59       -0.000  -0.002  -0.000   0.000  -0.002
   60       -0.000  -0.002  -0.000   0.000  -0.002
   61       -0.000  -0.008   0.000   0.000  -0.009
   62       -0.000  -0.008   0.000   0.000  -0.009
   63       -0.000  -0.008   0.000   0.000  -0.009
   64       -0.000  -0.002  -0.000   0.000  -0.002
   65       -0.000  -0.002  -0.000   0.000  -0.002
   66       -0.000  -0.002  -0.000   0.000  -0.002
   67        0.000   0.007   0.000   0.000   0.007
   68        0.000   0.007   0.000   0.000   0.007
   69        0.000   0.007   0.000   0.000   0.007
   70       -0.000   0.000   0.000   0.000   0.000
   71       -0.000   0.000   0.000   0.000   0.000
   72       -0.000   0.000   0.000   0.000   0.000
   73        0.000   0.002   0.000   0.000   0.002
   74        0.000   0.002   0.000   0.000   0.002
   75        0.000   0.002   0.000   0.000   0.002
   76       -0.000   0.000   0.000   0.000   0.000
   77       -0.000   0.000   0.000   0.000   0.000
   78       -0.000   0.000   0.000   0.000   0.000
   79        0.000   0.002   0.000   0.000   0.002
   80        0.000   0.002   0.000   0.000   0.002
   81        0.000   0.002   0.000   0.000   0.002
   82       -0.000   0.000   0.000   0.000   0.000
   83       -0.000   0.000   0.000   0.000   0.000
   84       -0.000   0.000   0.000   0.000   0.000
   85        0.000   0.007   0.000   0.000   0.007
   86        0.000   0.007   0.000   0.000   0.007
   87        0.000   0.007   0.000   0.000   0.007
   88       -0.000   0.000   0.000   0.000   0.000
   89       -0.000   0.000   0.000   0.000   0.000
   90       -0.000   0.000   0.000   0.000   0.000
   91       -0.000  -0.008   0.000   0.000  -0.009
   92       -0.000  -0.008   0.000   0.000  -0.009
   93       -0.000  -0.008   0.000   0.000  -0.009
   94       -0.000  -0.002  -0.000   0.000  -0.002
   95       -0.000  -0.002  -0.000   0.000  -0.002
   96       -0.000  -0.002  -0.000   0.000  -0.002
   97        0.000   0.018   0.000   0.000   0.018
   98        0.000   0.018   0.000   0.000   0.018
   99        0.000   0.018   0.000   0.000   0.018
  100       -0.000  -0.002  -0.000   0.000  -0.002
  101       -0.000  -0.002  -0.000   0.000  -0.002
  102       -0.000  -0.002  -0.000   0.000  -0.002
  103        0.000   0.002  -0.000   0.000   0.002
  104        0.000   0.002  -0.000   0.000   0.002
  105        0.000   0.002  -0.000   0.000   0.002
  106       -0.000   0.002   0.000   0.000   0.002
  107       -0.000   0.002   0.000   0.000   0.002
  108       -0.000   0.002   0.000   0.000   0.002
  109        0.000  -0.002  -0.000   0.000  -0.002
  110        0.000  -0.002  -0.000   0.000  -0.002
  111        0.000  -0.002  -0.000   0.000  -0.002
  112       -0.000   0.002   0.000   0.000   0.002
  113       -0.000   0.002   0.000   0.000   0.002
  114       -0.000   0.002   0.000   0.000   0.002
  115        0.001   0.040   0.000   0.000   0.041
  116        0.001   0.040   0.000   0.000   0.041
  117        0.001   0.040   0.000   0.000   0.041
  118        0.001   0.040   0.000   0.000   0.041
  119        0.001   0.040   0.000   0.000   0.041
  120        0.001   0.040   0.000   0.000   0.041
--------------------------------------------------
tot          0.016   0.364   0.432   0.000   0.813
 

 total amount of memory used by VASP MPI-rank0   763622. kBytes
=======================================================================

   base      :      30000. kBytes
   nonlr-proj:     189549. kBytes
   fftplans  :      81440. kBytes
   grid      :     113633. kBytes
   one-center:       1557. kBytes
   wavefun   :     347443. kBytes
 
  
  
 General timing and accounting informations for this job:
 ========================================================
  
                  Total CPU time used (sec):    46524.398
                            User time (sec):    46274.615
                          System time (sec):      249.784
                         Elapsed time (sec):    46685.639
  
                   Maximum memory used (kb):     1056192.
                   Average memory used (kb):          N/A
  
                          Minor page faults:      2637915
                          Major page faults:            0
                 Voluntary context switches:       297315
