       N       E                     dE             d eps       ncg     rms          rms(c)
DAV:   1     0.137156092474E+05    0.13716E+05   -0.59435E+05 23328   0.135E+03
DAV:   2     0.454687736441E+03   -0.13261E+05   -0.12638E+05 26576   0.560E+02
DAV:   3    -0.930962967917E+03   -0.13857E+04   -0.13497E+04 23104   0.164E+02
DAV:   4    -0.989188158508E+03   -0.58225E+02   -0.56632E+02 26928   0.415E+01
DAV:   5    -0.991124022650E+03   -0.19359E+01   -0.18871E+01 24992   0.654E+00
DAV:   6    -0.991218507826E+03   -0.94485E-01   -0.93262E-01 26752   0.154E+00
DAV:   7    -0.991223430058E+03   -0.49222E-02   -0.49002E-02 24784   0.285E-01
DAV:   8    -0.991223747639E+03   -0.31758E-03   -0.31691E-03 21760   0.702E-02    0.342E+02
DAV:   9    -0.635876093736E+03    0.35535E+03   -0.14235E+03 24176   0.606E+01    0.255E+02
DAV:  10    -0.617432167798E+03    0.18444E+02   -0.21257E+02 24080   0.335E+01    0.144E+02
DAV:  11    -0.595074371783E+03    0.22358E+02   -0.19092E+02 23840   0.211E+01    0.133E+02
DAV:  12    -0.549358882900E+03    0.45715E+02   -0.10651E+02 24704   0.211E+01    0.607E+01
DAV:  13    -0.538129753314E+03    0.11229E+02   -0.51807E+01 24496   0.123E+01    0.403E+01
DAV:  14    -0.546356157545E+03   -0.82264E+01   -0.26163E+01 22752   0.680E+00    0.321E+01
DAV:  15    -0.570506593837E+03   -0.24150E+02   -0.43714E+00 21568   0.325E+00    0.274E+01
DAV:  16    -0.615414873812E+03   -0.44908E+02   -0.16872E+01 23584   0.511E+00    0.216E+01
DAV:  17    -0.630649989883E+03   -0.15235E+02   -0.35328E+00 23008   0.287E+00    0.205E+01
DAV:  18    -0.631187054062E+03   -0.53706E+00   -0.26794E-01 21120   0.894E-01    0.199E+01
DAV:  19    -0.637017733984E+03   -0.58307E+01   -0.54701E-01 24016   0.108E+00    0.192E+01
DAV:  20    -0.659282543854E+03   -0.22265E+02   -0.59358E+00 21936   0.288E+00    0.197E+01
DAV:  21    -0.697383377707E+03   -0.38101E+02   -0.19191E+01 22816   0.524E+00    0.225E+01
DAV:  22    -0.724498518589E+03   -0.27115E+02   -0.19207E+01 22496   0.457E+00    0.253E+01
DAV:  23    -0.742938550453E+03   -0.18440E+02   -0.11242E+01 22800   0.332E+00    0.213E+01
DAV:  24    -0.766204230293E+03   -0.23266E+02   -0.23730E+01 21488   0.448E+00    0.160E+01
DAV:  25    -0.771657776624E+03   -0.54535E+01   -0.33011E+00 23648   0.274E+00    0.118E+01
DAV:  26    -0.774064967464E+03   -0.24072E+01   -0.97793E-01 21280   0.156E+00    0.824E+00
DAV:  27    -0.776820498556E+03   -0.27555E+01   -0.49779E-01 22176   0.103E+00    0.687E+00
DAV:  28    -0.779913337953E+03   -0.30928E+01   -0.63398E-01 21536   0.102E+00    0.609E+00
DAV:  29    -0.781621596870E+03   -0.17083E+01   -0.46625E-01 21776   0.844E-01    0.541E+00
DAV:  30    -0.783237093318E+03   -0.16155E+01   -0.37540E-01 22080   0.884E-01    0.452E+00
DAV:  31    -0.785208453279E+03   -0.19714E+01   -0.42263E-01 21200   0.905E-01    0.493E+00
DAV:  32    -0.786700839172E+03   -0.14924E+01   -0.18465E-01 21056   0.514E-01    0.346E+00
DAV:  33    -0.790898587916E+03   -0.41977E+01   -0.62260E-01 20992   0.745E-01    0.279E+00
DAV:  34    -0.795328631630E+03   -0.44300E+01   -0.82142E-01 21648   0.818E-01    0.142E+00
DAV:  35    -0.796614684798E+03   -0.12861E+01   -0.17536E-01 22288   0.413E-01    0.876E-01
DAV:  36    -0.797388551702E+03   -0.77387E+00   -0.84155E-02 21776   0.235E-01    0.889E-01
DAV:  37    -0.797974381088E+03   -0.58583E+00   -0.35637E-02 23024   0.167E-01    0.572E-01
DAV:  38    -0.798401579909E+03   -0.42720E+00   -0.19073E-02 22224   0.126E-01    0.256E-01
DAV:  39    -0.798566143958E+03   -0.16456E+00   -0.32390E-03 22544   0.720E-02    0.127E-01
DAV:  40    -0.798617444487E+03   -0.51301E-01   -0.70546E-04 19408   0.347E-02    0.104E-01
DAV:  41    -0.798641587308E+03   -0.24143E-01   -0.42547E-04 17264   0.266E-02    0.745E-02
DAV:  42    -0.798648134744E+03   -0.65474E-02   -0.20868E-04 16288   0.187E-02    0.725E-02
DAV:  43    -0.798648380903E+03   -0.24616E-03   -0.22344E-04 16704   0.193E-02    0.570E-02
DAV:  44    -0.798645724320E+03    0.26566E-02   -0.15945E-04 16000   0.184E-02    0.549E-02
DAV:  45    -0.798644318154E+03    0.14062E-02   -0.21549E-04 16992   0.219E-02    0.536E-02
DAV:  46    -0.798648461199E+03   -0.41430E-02   -0.32963E-04 17840   0.255E-02    0.513E-02
DAV:  47    -0.798656268599E+03   -0.78074E-02   -0.16858E-04 16016   0.182E-02    0.567E-02
DAV:  48    -0.798661281597E+03   -0.50130E-02   -0.58327E-05 13936   0.128E-02    0.399E-02
DAV:  49    -0.798664993890E+03   -0.37123E-02   -0.31009E-05 13792   0.105E-02    0.290E-02
DAV:  50    -0.798673743130E+03   -0.87492E-02   -0.56989E-05 13840   0.133E-02    0.194E-02
DAV:  51    -0.798677380202E+03   -0.36371E-02   -0.28526E-05 14144   0.113E-02    0.172E-02
DAV:  52    -0.798678230421E+03   -0.85022E-03   -0.14365E-05 13280   0.831E-03    0.175E-02
DAV:  53    -0.798679588159E+03   -0.13577E-02   -0.10394E-05 13248   0.753E-03    0.128E-02
DAV:  54    -0.798680870052E+03   -0.12819E-02   -0.72669E-06 13168   0.657E-03    0.953E-03
DAV:  55    -0.798681711577E+03   -0.84153E-03   -0.36600E-06 13504   0.474E-03    0.847E-03
DAV:  56    -0.798682739453E+03   -0.10279E-02   -0.34676E-06 13056   0.423E-03    0.761E-03
DAV:  57    -0.798683800827E+03   -0.10614E-02   -0.47081E-06 13360   0.402E-03    0.647E-03
DAV:  58    -0.798684479161E+03   -0.67833E-03   -0.30549E-06 13648   0.304E-03    0.561E-03
DAV:  59    -0.798684885321E+03   -0.40616E-03   -0.16424E-06 13712   0.228E-03    0.472E-03
DAV:  60    -0.798685372203E+03   -0.48688E-03   -0.18989E-06 12960   0.205E-03    0.413E-03
DAV:  61    -0.798685731558E+03   -0.35936E-03   -0.10780E-06 12976   0.171E-03    0.373E-03
DAV:  62    -0.798686080547E+03   -0.34899E-03   -0.95580E-07 12640   0.145E-03    0.334E-03
DAV:  63    -0.798686766519E+03   -0.68597E-03   -0.29192E-06 12960   0.228E-03    0.318E-03
DAV:  64    -0.798687229416E+03   -0.46290E-03   -0.20436E-06 13392   0.199E-03    0.251E-03
DAV:  65    -0.798687954032E+03   -0.72462E-03   -0.65955E-06 13280   0.344E-03    0.198E-03
DAV:  66    -0.798688128603E+03   -0.17457E-03   -0.14995E-06 12912   0.210E-03    0.164E-03
DAV:  67    -0.798688179397E+03   -0.50794E-04   -0.39900E-07 12736   0.126E-03
   1 F= -.79868818E+03 E0= -.79865448E+03  d E =-.798688E+03  mag=     3.0625
       N       E                     dE             d eps       ncg     rms          rms(c)
DAV:   1    -0.781429751335E+03    0.17258E+02   -0.22469E+03 20848   0.821E+01    0.296E+01
DAV:   2    -0.792641012886E+03   -0.11211E+02   -0.13540E+02 22000   0.156E+01    0.226E+01
DAV:   3    -0.792636583246E+03    0.44296E-02   -0.10867E+01 24912   0.618E+00    0.214E+01
DAV:   4    -0.791925090449E+03    0.71149E+00   -0.51581E+00 23664   0.320E+00    0.152E+01
DAV:   5    -0.791979210100E+03   -0.54120E-01   -0.18857E+00 23792   0.213E+00    0.139E+01
DAV:   6    -0.791654568091E+03    0.32464E+00   -0.19246E+00 25440   0.254E+00    0.931E+00
DAV:   7    -0.791208054377E+03    0.44651E+00   -0.81649E-01 24256   0.165E+00    0.353E+00
DAV:   8    -0.791065392921E+03    0.14266E+00   -0.19370E-01 24112   0.830E-01    0.137E+00
DAV:   9    -0.791057391627E+03    0.80013E-02   -0.38789E-02 20880   0.377E-01    0.130E+00
DAV:  10    -0.791079754112E+03   -0.22362E-01   -0.87262E-03 23664   0.219E-01    0.879E-01
DAV:  11    -0.791125908643E+03   -0.46155E-01   -0.47371E-03 22992   0.174E-01    0.827E-01
DAV:  12    -0.791160578949E+03   -0.34670E-01   -0.41345E-03 22320   0.129E-01    0.545E-01
DAV:  13    -0.791206139486E+03   -0.45561E-01   -0.20764E-03 20784   0.850E-02    0.396E-01
DAV:  14    -0.791242662272E+03   -0.36523E-01   -0.78959E-04 19760   0.431E-02    0.370E-01
DAV:  15    -0.791285274135E+03   -0.42612E-01   -0.14806E-03 18880   0.472E-02    0.326E-01
DAV:  16    -0.791329160387E+03   -0.43886E-01   -0.31225E-03 19840   0.614E-02    0.325E-01
DAV:  17    -0.791357505782E+03   -0.28345E-01   -0.15901E-03 20944   0.433E-02    0.293E-01
DAV:  18    -0.791402633905E+03   -0.45128E-01   -0.14289E-03 19904   0.445E-02    0.276E-01
DAV:  19    -0.791459414285E+03   -0.56780E-01   -0.81961E-04 20112   0.346E-02    0.268E-01
DAV:  20    -0.791533309306E+03   -0.73895E-01   -0.68248E-04 19104   0.355E-02    0.250E-01
DAV:  21    -0.791667460017E+03   -0.13415E+00   -0.21295E-03 20208   0.732E-02    0.240E-01
DAV:  22    -0.791746364793E+03   -0.78905E-01   -0.25926E-03 22032   0.789E-02    0.194E-01
DAV:  23    -0.791657498284E+03    0.88867E-01   -0.28270E-03 21600   0.736E-02    0.174E-01
DAV:  24    -0.791644191375E+03    0.13307E-01   -0.28349E-04 18016   0.269E-02    0.162E-01
DAV:  25    -0.791658323029E+03   -0.14132E-01   -0.79791E-05 14528   0.164E-02    0.142E-01
DAV:  26    -0.791695095363E+03   -0.36772E-01   -0.58279E-04 18896   0.350E-02    0.144E-01
DAV:  27    -0.791698066570E+03   -0.29712E-02   -0.86896E-05 15696   0.162E-02    0.150E-01
DAV:  28    -0.791723433043E+03   -0.25366E-01   -0.74215E-05 14240   0.178E-02    0.884E-02
DAV:  29    -0.791756618886E+03   -0.33186E-01   -0.34436E-04 16560   0.314E-02    0.706E-02
DAV:  30    -0.791762706325E+03   -0.60874E-02   -0.18896E-04 15664   0.270E-02    0.952E-02
DAV:  31    -0.791764316616E+03   -0.16103E-02   -0.61440E-05 15360   0.177E-02    0.577E-02
DAV:  32    -0.791764168814E+03    0.14780E-03   -0.47745E-05 13888   0.133E-02    0.306E-02
DAV:  33    -0.791764298188E+03   -0.12937E-03   -0.27387E-05 14032   0.954E-03    0.271E-02
DAV:  34    -0.791764809183E+03   -0.51100E-03   -0.24743E-05 13616   0.894E-03    0.309E-02
DAV:  35    -0.791766487394E+03   -0.16782E-02   -0.44249E-05 14032   0.114E-02    0.257E-02
DAV:  36    -0.791770245474E+03   -0.37581E-02   -0.43848E-05 13936   0.126E-02    0.251E-02
DAV:  37    -0.791775504010E+03   -0.52585E-02   -0.42008E-05 14496   0.136E-02    0.251E-02
DAV:  38    -0.791783148142E+03   -0.76441E-02   -0.60001E-05 14384   0.175E-02    0.170E-02
DAV:  39    -0.791789443607E+03   -0.62955E-02   -0.48756E-05 13616   0.164E-02    0.118E-02
DAV:  40    -0.791792322101E+03   -0.28785E-02   -0.32114E-05 14112   0.118E-02    0.954E-03
DAV:  41    -0.791793345404E+03   -0.10233E-02   -0.16276E-05 14464   0.790E-03    0.722E-03
DAV:  42    -0.791793874273E+03   -0.52887E-03   -0.11639E-05 14000   0.584E-03    0.634E-03
DAV:  43    -0.791794166895E+03   -0.29262E-03   -0.57741E-06 13840   0.436E-03    0.491E-03
DAV:  44    -0.791794438115E+03   -0.27122E-03   -0.31348E-06 12208   0.310E-03    0.443E-03
DAV:  45    -0.791794751193E+03   -0.31308E-03   -0.17131E-06 12608   0.255E-03    0.424E-03
DAV:  46    -0.791795090453E+03   -0.33926E-03   -0.12079E-06 12656   0.212E-03    0.490E-03
DAV:  47    -0.791795331451E+03   -0.24100E-03   -0.77084E-07 12544   0.191E-03    0.389E-03
DAV:  48    -0.791795636687E+03   -0.30524E-03   -0.15395E-06 13248   0.227E-03    0.328E-03
DAV:  49    -0.791795818109E+03   -0.18142E-03   -0.12319E-06 13584   0.204E-03    0.262E-03
DAV:  50    -0.791795922401E+03   -0.10429E-03   -0.75235E-07 12848   0.168E-03    0.179E-03
DAV:  51    -0.791796037664E+03   -0.11526E-03   -0.67255E-07 12448   0.158E-03    0.200E-03
DAV:  52    -0.791796103710E+03   -0.66046E-04   -0.39317E-07 12656   0.127E-03
   2 F= -.79179610E+03 E0= -.79175438E+03  d E =0.689208E+01  mag=     0.0002
       N       E                     dE             d eps       ncg     rms          rms(c)
DAV:   1    -0.796032930692E+03   -0.42369E+01   -0.97837E+02 20160   0.527E+01    0.261E+01
DAV:   2    -0.800420186456E+03   -0.43873E+01   -0.62936E+01 26480   0.141E+01    0.131E+01
DAV:   3    -0.800804136564E+03   -0.38395E+00   -0.84094E+00 25792   0.515E+00    0.152E+01
DAV:   4    -0.800045781605E+03    0.75835E+00   -0.41263E+00 25808   0.299E+00    0.911E+00
DAV:   5    -0.800046313642E+03   -0.53204E-03   -0.14376E+00 26400   0.180E+00    0.701E+00
DAV:   6    -0.799873146261E+03    0.17317E+00   -0.89581E-01 25120   0.153E+00    0.288E+00
DAV:   7    -0.799871158597E+03    0.19877E-02   -0.34691E-01 25392   0.895E-01    0.301E+00
DAV:   8    -0.799867384592E+03    0.37740E-02   -0.42857E-02 23216   0.435E-01    0.233E+00
DAV:   9    -0.799852250881E+03    0.15134E-01   -0.26600E-02 24320   0.332E-01    0.121E+00
DAV:  10    -0.799849983935E+03    0.22669E-02   -0.12079E-02 24464   0.251E-01    0.732E-01
DAV:  11    -0.799847632164E+03    0.23518E-02   -0.40895E-03 23408   0.145E-01    0.244E-01
DAV:  12    -0.799846952194E+03    0.67997E-03   -0.11910E-03 21360   0.658E-02    0.165E-01
DAV:  13    -0.799846641317E+03    0.31088E-03   -0.20836E-04 15216   0.291E-02    0.135E-01
DAV:  14    -0.799846314332E+03    0.32698E-03   -0.66884E-05 13360   0.176E-02    0.935E-02
DAV:  15    -0.799845520112E+03    0.79422E-03   -0.34679E-04 18672   0.279E-02    0.648E-02
DAV:  16    -0.799845189835E+03    0.33028E-03   -0.11727E-04 15536   0.192E-02    0.353E-02
DAV:  17    -0.799845150408E+03    0.39427E-04   -0.95619E-05 14432   0.177E-02
   3 F= -.79984515E+03 E0= -.79980269E+03  d E =-.115697E+01  mag=     0.0015
       N       E                     dE             d eps       ncg     rms          rms(c)
DAV:   1    -0.799845592166E+03   -0.40233E-03   -0.77358E-01 20368   0.151E+00    0.409E-01
DAV:   2    -0.799848062835E+03   -0.24707E-02   -0.36078E-02 23808   0.288E-01    0.286E-01
DAV:   3    -0.799848162049E+03   -0.99214E-04   -0.16263E-03 22992   0.792E-02    0.266E-01
DAV:   4    -0.799848112464E+03    0.49585E-04   -0.10414E-03 16224   0.496E-02    0.250E-01
DAV:   5    -0.799848324663E+03   -0.21220E-03   -0.83631E-04 17888   0.541E-02    0.171E-01
DAV:   6    -0.799848265886E+03    0.58777E-04   -0.44579E-04 13984   0.479E-02
   4 F= -.79984827E+03 E0= -.79980567E+03  d E =-.116009E+01  mag=     0.0034
       N       E                     dE             d eps       ncg     rms          rms(c)
DAV:   1    -0.798195131883E+03    0.16532E+01   -0.48394E+02 19904   0.402E+01    0.124E+01
DAV:   2    -0.800643990191E+03   -0.24489E+01   -0.26025E+01 21040   0.738E+00    0.109E+01
DAV:   3    -0.800877398947E+03   -0.23341E+00   -0.49473E+00 25872   0.310E+00    0.116E+01
DAV:   4    -0.800509964412E+03    0.36743E+00   -0.24399E+00 24688   0.219E+00    0.655E+00
DAV:   5    -0.800570613344E+03   -0.60649E-01   -0.86763E-01 26928   0.157E+00    0.617E+00
DAV:   6    -0.800502339199E+03    0.68274E-01   -0.47153E-01 24352   0.132E+00    0.393E+00
DAV:   7    -0.800457018406E+03    0.45321E-01   -0.18517E-01 23680   0.741E-01    0.163E+00
DAV:   8    -0.800443480228E+03    0.13538E-01   -0.56591E-02 24432   0.443E-01    0.858E-01
DAV:   9    -0.800443929319E+03   -0.44909E-03   -0.78817E-03 20496   0.156E-01    0.681E-01
DAV:  10    -0.800443217025E+03    0.71229E-03   -0.15057E-03 23120   0.906E-02    0.400E-01
DAV:  11    -0.800443305592E+03   -0.88566E-04   -0.11039E-03 19792   0.656E-02    0.195E-01
DAV:  12    -0.800443488404E+03   -0.18281E-03   -0.41123E-04 16656   0.434E-02    0.982E-02
DAV:  13    -0.800443710918E+03   -0.22251E-03   -0.86599E-05 13616   0.241E-02    0.657E-02
DAV:  14    -0.800444049395E+03   -0.33848E-03   -0.40624E-05 13824   0.133E-02    0.394E-02
DAV:  15    -0.800444283729E+03   -0.23433E-03   -0.26304E-05 14240   0.110E-02    0.181E-02
DAV:  16    -0.800444577612E+03   -0.29388E-03   -0.24679E-05 13920   0.737E-03    0.121E-02
DAV:  17    -0.800444860730E+03   -0.28312E-03   -0.19366E-05 14208   0.648E-03    0.800E-03
DAV:  18    -0.800444997183E+03   -0.13645E-03   -0.11579E-05 13968   0.511E-03    0.646E-03
DAV:  19    -0.800445380019E+03   -0.38284E-03   -0.35341E-05 14320   0.537E-03    0.567E-03
DAV:  20    -0.800445578827E+03   -0.19881E-03   -0.13895E-05 14016   0.511E-03    0.719E-03
DAV:  21    -0.800445659279E+03   -0.80453E-04   -0.90751E-06 13984   0.402E-03
   5 F= -.80044566E+03 E0= -.80040580E+03  d E =-.597393E+00  mag=     0.0040
       N       E                     dE             d eps       ncg     rms          rms(c)
DAV:   1    -0.800444523053E+03    0.10558E-02   -0.43428E-01 20176   0.120E+00    0.304E-01
DAV:   2    -0.800446324114E+03   -0.18011E-02   -0.20458E-02 21472   0.206E-01    0.274E-01
DAV:   3    -0.800446327457E+03   -0.33430E-05   -0.89627E-04 21472   0.648E-02    0.202E-01
DAV:   4    -0.800446407556E+03   -0.80099E-04   -0.47817E-04 13664   0.532E-02    0.218E-01
DAV:   5    -0.800446484243E+03   -0.76687E-04   -0.65452E-04 12720   0.560E-02    0.184E-01
DAV:   6    -0.800446351358E+03    0.13289E-03   -0.48487E-04 13008   0.432E-02    0.693E-02
DAV:   7    -0.800446351610E+03   -0.25256E-06   -0.71010E-05 12832   0.185E-02
   6 F= -.80044635E+03 E0= -.80040649E+03  d E =-.598086E+00  mag=     0.0037
       N       E                     dE             d eps       ncg     rms          rms(c)
DAV:   1    -0.799850856662E+03    0.59549E+00   -0.19587E+02 19264   0.280E+01    0.778E+00
DAV:   2    -0.800815783954E+03   -0.96493E+00   -0.10148E+01 21088   0.489E+00    0.809E+00
DAV:   3    -0.800817810864E+03   -0.20269E-02   -0.20232E+00 24608   0.226E+00    0.727E+00
DAV:   4    -0.800660305565E+03    0.15751E+00   -0.10918E+00 24384   0.133E+00    0.366E+00
DAV:   5    -0.800718372433E+03   -0.58067E-01   -0.22809E-01 27392   0.105E+00    0.470E+00
DAV:   6    -0.800644713843E+03    0.73659E-01   -0.11439E-01 25264   0.731E-01    0.168E+00
DAV:   7    -0.800651977474E+03   -0.72636E-02   -0.68574E-02 26304   0.564E-01    0.146E+00
DAV:   8    -0.800641882193E+03    0.10095E-01   -0.25940E-02 23776   0.315E-01    0.402E-01
DAV:   9    -0.800641552070E+03    0.33012E-03   -0.41440E-03 23536   0.127E-01    0.245E-01
DAV:  10    -0.800641397775E+03    0.15429E-03   -0.86753E-04 22304   0.637E-02    0.138E-01
DAV:  11    -0.800641398058E+03   -0.28298E-06   -0.23276E-04 13552   0.340E-02
   7 F= -.80064140E+03 E0= -.80060283E+03  d E =-.195046E+00  mag=     0.0034
       N       E                     dE             d eps       ncg     rms          rms(c)
DAV:   1    -0.800638854020E+03    0.25438E-02   -0.92710E-01 19712   0.192E+00    0.519E-01
DAV:   2    -0.800644072111E+03   -0.52181E-02   -0.46434E-02 20640   0.342E-01    0.724E-01
DAV:   3    -0.800642748744E+03    0.13234E-02   -0.82949E-03 21808   0.159E-01    0.419E-01
DAV:   4    -0.800642633727E+03    0.11502E-03   -0.20991E-03 18192   0.867E-02    0.233E-01
DAV:   5    -0.800642860060E+03   -0.22633E-03   -0.95600E-04 18096   0.741E-02    0.294E-01
DAV:   6    -0.800642652976E+03    0.20708E-03   -0.43407E-04 15008   0.567E-02    0.101E-01
DAV:   7    -0.800642699999E+03   -0.47023E-04   -0.18665E-04 14272   0.353E-02
   8 F= -.80064270E+03 E0= -.80060402E+03  d E =-.196348E+00  mag=     0.0033
       N       E                     dE             d eps       ncg     rms          rms(c)
DAV:   1    -0.800482847158E+03    0.15981E+00   -0.64835E+01 19264   0.159E+01    0.554E+00
DAV:   2    -0.800896000736E+03   -0.41315E+00   -0.37915E+00 20896   0.293E+00    0.750E+00
DAV:   3    -0.800790218288E+03    0.10578E+00   -0.14704E+00 23136   0.163E+00    0.513E+00
DAV:   4    -0.800726636315E+03    0.63582E-01   -0.44298E-01 23056   0.880E-01    0.224E+00
DAV:   5    -0.800754464253E+03   -0.27828E-01   -0.92237E-02 28096   0.751E-01    0.310E+00
DAV:   6    -0.800720636209E+03    0.33828E-01   -0.48370E-02 27264   0.518E-01    0.136E+00
DAV:   7    -0.800719585561E+03    0.10506E-02   -0.23896E-02 25008   0.340E-01    0.933E-01
DAV:   8    -0.800716227802E+03    0.33578E-02   -0.11430E-02 25536   0.208E-01    0.346E-01
DAV:   9    -0.800716071039E+03    0.15676E-03   -0.25841E-03 23488   0.102E-01    0.187E-01
DAV:  10    -0.800715943492E+03    0.12755E-03   -0.43653E-04 17984   0.471E-02    0.852E-02
DAV:  11    -0.800715970449E+03   -0.26957E-04   -0.91846E-05 13152   0.195E-02
   9 F= -.80071597E+03 E0= -.80067797E+03  d E =-.732704E-01  mag=     0.0032
       N       E                     dE             d eps       ncg     rms          rms(c)
DAV:   1    -0.800715701742E+03    0.24175E-03   -0.12231E-01 19808   0.695E-01    0.232E-01
DAV:   2    -0.800716340659E+03   -0.63892E-03   -0.57947E-03 21552   0.123E-01    0.252E-01
DAV:   3    -0.800716397500E+03   -0.56841E-04   -0.11740E-03 18416   0.627E-02    0.246E-01
DAV:   4    -0.800716241167E+03    0.15633E-03   -0.51160E-04 13040   0.409E-02    0.859E-02
DAV:   5    -0.800716326776E+03   -0.85609E-04   -0.17362E-04 13328   0.323E-02    0.100E-01
DAV:   6    -0.800716317113E+03    0.96637E-05   -0.10363E-04 13616   0.262E-02
  10 F= -.80071632E+03 E0= -.80067832E+03  d E =-.736171E-01  mag=     0.0033
       N       E                     dE             d eps       ncg     rms          rms(c)
DAV:   1    -0.800530966543E+03    0.18536E+00   -0.56214E+01 19264   0.155E+01    0.371E+00
DAV:   2    -0.800813088209E+03   -0.28212E+00   -0.27239E+00 21088   0.275E+00    0.526E+00
DAV:   3    -0.800757109196E+03    0.55979E-01   -0.57305E-01 23728   0.107E+00    0.313E+00
DAV:   4    -0.800741627135E+03    0.15482E-01   -0.20696E-01 23472   0.591E-01    0.205E+00
DAV:   5    -0.800745543650E+03   -0.39165E-02   -0.49181E-02 27616   0.468E-01    0.187E+00
DAV:   6    -0.800737726921E+03    0.78167E-02   -0.28133E-02 24704   0.368E-01    0.102E+00
DAV:   7    -0.800737127934E+03    0.59899E-03   -0.14554E-02 24704   0.277E-01    0.716E-01
DAV:   8    -0.800735028889E+03    0.20990E-02   -0.54057E-03 22736   0.156E-01    0.241E-01
DAV:   9    -0.800734995092E+03    0.33797E-04   -0.92151E-04 19232   0.609E-02
  11 F= -.80073500E+03 E0= -.80069748E+03  d E =-.186780E-01  mag=     0.0037
       N       E                     dE             d eps       ncg     rms          rms(c)
DAV:   1    -0.800717217248E+03    0.17812E-01   -0.82584E+00 19328   0.596E+00    0.141E+00
DAV:   2    -0.800760515671E+03   -0.43298E-01   -0.40779E-01 20736   0.106E+00    0.222E+00
DAV:   3    -0.800747818894E+03    0.12697E-01   -0.91710E-02 22016   0.421E-01    0.105E+00
DAV:   4    -0.800747690656E+03    0.12824E-03   -0.15784E-02 23360   0.227E-01    0.754E-01
DAV:   5    -0.800748119514E+03   -0.42886E-03   -0.72831E-03 27520   0.185E-01    0.667E-01
DAV:   6    -0.800747308951E+03    0.81056E-03   -0.38204E-03 23904   0.144E-01    0.297E-01
DAV:   7    -0.800747239669E+03    0.69281E-04   -0.15899E-03 24192   0.889E-02    0.194E-01
DAV:   8    -0.800747125588E+03    0.11408E-03   -0.40576E-04 14160   0.468E-02    0.850E-02
DAV:   9    -0.800747125805E+03   -0.21674E-06   -0.98565E-05 14112   0.242E-02
  12 F= -.80074713E+03 E0= -.80070935E+03  d E =-.308087E-01  mag=     0.0045
       N       E                     dE             d eps       ncg     rms          rms(c)
DAV:   1    -0.800623646461E+03    0.12348E+00   -0.30755E+01 19264   0.113E+01    0.288E+00
DAV:   2    -0.800768864406E+03   -0.14522E+00   -0.16170E+00 21136   0.208E+00    0.210E+00
DAV:   3    -0.800776288052E+03   -0.74236E-02   -0.11657E-01 25856   0.660E-01    0.191E+00
DAV:   4    -0.800774027782E+03    0.22603E-02   -0.12768E-01 26688   0.556E-01    0.187E+00
DAV:   5    -0.800768691127E+03    0.53367E-02   -0.34806E-02 24832   0.322E-01    0.131E+00
DAV:   6    -0.800765179002E+03    0.35121E-02   -0.21362E-02 24336   0.282E-01    0.619E-01
DAV:   7    -0.800765321929E+03   -0.14293E-03   -0.64434E-03 23456   0.153E-01    0.403E-01
DAV:   8    -0.800764537255E+03    0.78467E-03   -0.17045E-03 21952   0.880E-02    0.120E-01
DAV:   9    -0.800764546059E+03   -0.88039E-05   -0.19918E-04 13920   0.328E-02
  13 F= -.80076455E+03 E0= -.80072698E+03  d E =-.174203E-01  mag=     0.0058
       N       E                     dE             d eps       ncg     rms          rms(c)
DAV:   1    -0.800757996271E+03    0.65410E-02   -0.18385E+00 19568   0.276E+00    0.687E-01
DAV:   2    -0.800766934735E+03   -0.89385E-02   -0.96944E-02 20928   0.513E-01    0.612E-01
DAV:   3    -0.800767198276E+03   -0.26354E-03   -0.90889E-03 24688   0.195E-01    0.576E-01
DAV:   4    -0.800766499337E+03    0.69894E-03   -0.52487E-03 21504   0.137E-01    0.386E-01
DAV:   5    -0.800766413865E+03    0.85472E-04   -0.16546E-03 16320   0.731E-02    0.309E-01
DAV:   6    -0.800766319042E+03    0.94823E-04   -0.11650E-03 18864   0.719E-02    0.156E-01
DAV:   7    -0.800766293276E+03    0.25766E-04   -0.37200E-04 14480   0.399E-02
  14 F= -.80076629E+03 E0= -.80072869E+03  d E =-.191675E-01  mag=     0.0073
       N       E                     dE             d eps       ncg     rms          rms(c)
DAV:   1    -0.800754645802E+03    0.11673E-01   -0.65214E+00 19328   0.503E+00    0.113E+00
DAV:   2    -0.800780549764E+03   -0.25904E-01   -0.27907E-01 20080   0.809E-01    0.104E+00
DAV:   3    -0.800781953137E+03   -0.14034E-02   -0.28844E-02 24592   0.292E-01    0.110E+00
DAV:   4    -0.800778639360E+03    0.33138E-02   -0.10875E-02 22752   0.172E-01    0.460E-01
DAV:   5    -0.800780141962E+03   -0.15026E-02   -0.61881E-03 23296   0.146E-01    0.599E-01
DAV:   6    -0.800778807438E+03    0.13345E-02   -0.40456E-03 23536   0.128E-01    0.221E-01
DAV:   7    -0.800778700435E+03    0.10700E-03   -0.80164E-04 19440   0.614E-02    0.116E-01
DAV:   8    -0.800778660069E+03    0.40366E-04   -0.14799E-04 12416   0.278E-02
  15 F= -.80077866E+03 E0= -.80074109E+03  d E =-.123668E-01  mag=     0.0094
       N       E                     dE             d eps       ncg     rms          rms(c)
DAV:   1    -0.800680587554E+03    0.98113E-01   -0.29430E+01 19264   0.107E+01    0.242E+00
DAV:   2    -0.800799246324E+03   -0.11866E+00   -0.12745E+00 20000   0.173E+00    0.225E+00
DAV:   3    -0.800806124129E+03   -0.68778E-02   -0.16122E-01 24960   0.636E-01    0.235E+00
DAV:   4    -0.800790143255E+03    0.15981E-01   -0.55164E-02 23728   0.376E-01    0.998E-01
DAV:   5    -0.800796853677E+03   -0.67104E-02   -0.30291E-02 26880   0.317E-01    0.129E+00
DAV:   6    -0.800790619447E+03    0.62342E-02   -0.17005E-02 24352   0.263E-01    0.459E-01
DAV:   7    -0.800790466296E+03    0.15315E-03   -0.36425E-03 23632   0.130E-01    0.287E-01
DAV:   8    -0.800790171468E+03    0.29483E-03   -0.84008E-04 19120   0.622E-02    0.862E-02
DAV:   9    -0.800790182519E+03   -0.11051E-04   -0.12792E-04 13408   0.255E-02
  16 F= -.80079018E+03 E0= -.80075282E+03  d E =-.238892E-01  mag=     0.0120
       N       E                     dE             d eps       ncg     rms          rms(c)
DAV:   1    -0.800787812021E+03    0.23594E-02   -0.26138E+00 19392   0.325E+00    0.664E-01
DAV:   2    -0.800797702260E+03   -0.98902E-02   -0.11004E-01 20256   0.539E-01    0.486E-01
DAV:   3    -0.800798426196E+03   -0.72394E-03   -0.68574E-03 23856   0.151E-01    0.599E-01
DAV:   4    -0.800797380994E+03    0.10452E-02   -0.24264E-03 19184   0.890E-02    0.231E-01
DAV:   5    -0.800797877289E+03   -0.49629E-03   -0.10067E-03 18640   0.666E-02    0.306E-01
DAV:   6    -0.800797608179E+03    0.26911E-03   -0.88745E-04 16128   0.653E-02    0.868E-02
DAV:   7    -0.800797608643E+03   -0.46456E-06   -0.17408E-04 13520   0.283E-02
  17 F= -.80079761E+03 E0= -.80076034E+03  d E =-.742612E-02  mag=     0.0139
       N       E                     dE             d eps       ncg     rms          rms(c)
DAV:   1    -0.800748203524E+03    0.49405E-01   -0.14539E+01 19280   0.766E+00    0.155E+00
DAV:   2    -0.800802362644E+03   -0.54159E-01   -0.61142E-01 20160   0.127E+00    0.104E+00
DAV:   3    -0.800803815608E+03   -0.14530E-02   -0.23606E-02 25264   0.287E-01    0.969E-01
DAV:   4    -0.800802077890E+03    0.17377E-02   -0.10015E-02 23232   0.177E-01    0.656E-01
DAV:   5    -0.800804022417E+03   -0.19445E-02   -0.66771E-03 24224   0.160E-01    0.711E-01
DAV:   6    -0.800802714763E+03    0.13077E-02   -0.47261E-03 23232   0.138E-01    0.184E-01
DAV:   7    -0.800802684159E+03    0.30603E-04   -0.73380E-04 20800   0.578E-02
  18 F= -.80080268E+03 E0= -.80076557E+03  d E =-.125016E-01  mag=     0.0160
       N       E                     dE             d eps       ncg     rms          rms(c)
DAV:   1    -0.800797487144E+03    0.52276E-02   -0.25468E+00 19520   0.317E+00    0.657E-01
DAV:   2    -0.800807520770E+03   -0.10034E-01   -0.10808E-01 20272   0.517E-01    0.537E-01
DAV:   3    -0.800807826445E+03   -0.30568E-03   -0.66938E-03 24256   0.147E-01    0.561E-01
DAV:   4    -0.800806804878E+03    0.10216E-02   -0.18829E-03 19056   0.836E-02    0.256E-01
DAV:   5    -0.800807651828E+03   -0.84695E-03   -0.16214E-03 19232   0.716E-02    0.360E-01
DAV:   6    -0.800807219504E+03    0.43232E-03   -0.20312E-03 14848   0.840E-02    0.151E-01
DAV:   7    -0.800807152179E+03    0.67325E-04   -0.23506E-04 12784   0.376E-02
  19 F= -.80080715E+03 E0= -.80077000E+03  d E =-.446802E-02  mag=     0.0183
       N       E                     dE             d eps       ncg     rms          rms(c)
DAV:   1    -0.800724324685E+03    0.82895E-01   -0.22868E+01 19296   0.950E+00    0.200E+00
DAV:   2    -0.800815002462E+03   -0.90678E-01   -0.96265E-01 20368   0.154E+00    0.162E+00
DAV:   3    -0.800820514649E+03   -0.55122E-02   -0.84032E-02 25280   0.432E-01    0.195E+00
DAV:   4    -0.800810273426E+03    0.10241E-01   -0.33683E-02 21680   0.246E-01    0.771E-01
DAV:   5    -0.800815832386E+03   -0.55590E-02   -0.12660E-02 24144   0.223E-01    0.985E-01
DAV:   6    -0.800812523624E+03    0.33088E-02   -0.14101E-02 24944   0.232E-01    0.414E-01
DAV:   7    -0.800812033466E+03    0.49016E-03   -0.27147E-03 22992   0.101E-01    0.210E-01
DAV:   8    -0.800811886222E+03    0.14724E-03   -0.45596E-04 14928   0.454E-02    0.782E-02
DAV:   9    -0.800811875176E+03    0.11047E-04   -0.95572E-05 13520   0.262E-02
  20 F= -.80081188E+03 E0= -.80077483E+03  d E =-.919102E-02  mag=     0.0219
       N       E                     dE             d eps       ncg     rms          rms(c)
DAV:   1    -0.800814660711E+03   -0.27745E-02   -0.42767E-01 19680   0.130E+00    0.346E-01
DAV:   2    -0.800815898269E+03   -0.12376E-02   -0.13729E-02 21648   0.189E-01    0.208E-01
DAV:   3    -0.800815974095E+03   -0.75827E-04   -0.79986E-04 20960   0.586E-02    0.189E-01
DAV:   4    -0.800815955551E+03    0.18544E-04   -0.62826E-04 14736   0.470E-02    0.165E-01
DAV:   5    -0.800815958918E+03   -0.33668E-05   -0.47949E-04 13232   0.399E-02    0.170E-01
DAV:   6    -0.800815861307E+03    0.97611E-04   -0.24791E-04 13024   0.324E-02
  21 F= -.80081586E+03 E0= -.80077881E+03  d E =-.398613E-02  mag=     0.0253
       N       E                     dE             d eps       ncg     rms          rms(c)
DAV:   1    -0.800812700025E+03    0.32589E-02   -0.21334E+00 19520   0.291E+00    0.767E-01
DAV:   2    -0.800818830385E+03   -0.61304E-02   -0.68637E-02 21440   0.422E-01    0.514E-01
DAV:   3    -0.800819420362E+03   -0.58998E-03   -0.49227E-03 25360   0.153E-01    0.455E-01
DAV:   4    -0.800819106411E+03    0.31395E-03   -0.39456E-03 23168   0.136E-01    0.413E-01
DAV:   5    -0.800818949264E+03    0.15715E-03   -0.20590E-03 20608   0.102E-01    0.311E-01
DAV:   6    -0.800818581912E+03    0.36735E-03   -0.13866E-03 16496   0.705E-02    0.134E-01
DAV:   7    -0.800818522941E+03    0.58971E-04   -0.36938E-04 13920   0.379E-02
  22 F= -.80081852E+03 E0= -.80078146E+03  d E =-.664776E-02  mag=     0.0295
       N       E                     dE             d eps       ncg     rms          rms(c)
DAV:   1    -0.800820255478E+03   -0.16736E-02   -0.34740E-01 19648   0.115E+00    0.285E-01
DAV:   2    -0.800821091002E+03   -0.83552E-03   -0.91425E-03 21952   0.157E-01    0.234E-01
DAV:   3    -0.800821270596E+03   -0.17959E-03   -0.15095E-03 20416   0.828E-02    0.268E-01
DAV:   4    -0.800821043437E+03    0.22716E-03   -0.13527E-03 13520   0.724E-02    0.185E-01
DAV:   5    -0.800820944140E+03    0.99297E-04   -0.31079E-04 13184   0.321E-02    0.114E-01
DAV:   6    -0.800820870787E+03    0.73353E-04   -0.17432E-04 13200   0.286E-02
  23 F= -.80082087E+03 E0= -.80078391E+03  d E =-.234785E-02  mag=     0.0335
       N       E                     dE             d eps       ncg     rms          rms(c)
DAV:   1    -0.800818883965E+03    0.20602E-02   -0.19262E+00 19440   0.270E+00    0.648E-01
DAV:   2    -0.800823889414E+03   -0.50054E-02   -0.51004E-02 22016   0.368E-01    0.636E-01
DAV:   3    -0.800823960461E+03   -0.71047E-04   -0.88958E-03 24800   0.171E-01    0.521E-01
DAV:   4    -0.800823924981E+03    0.35481E-04   -0.85460E-03 21728   0.145E-01    0.508E-01
DAV:   5    -0.800823305987E+03    0.61899E-03   -0.22502E-03 18192   0.807E-02    0.278E-01
DAV:   6    -0.800823142806E+03    0.16318E-03   -0.84046E-04 15968   0.659E-02    0.139E-01
DAV:   7    -0.800823099599E+03    0.43206E-04   -0.28230E-04 12880   0.381E-02
  24 F= -.80082310E+03 E0= -.80078608E+03  d E =-.457666E-02  mag=     0.0385
       N       E                     dE             d eps       ncg     rms          rms(c)
DAV:   1    -0.800824330058E+03   -0.11873E-02   -0.25792E-01 19648   0.103E+00    0.287E-01
DAV:   2    -0.800825505193E+03   -0.11751E-02   -0.11580E-02 20560   0.170E-01    0.333E-01
DAV:   3    -0.800825474896E+03    0.30297E-04   -0.24055E-03 19568   0.753E-02    0.299E-01
DAV:   4    -0.800825207642E+03    0.26725E-03   -0.92446E-04 13168   0.480E-02    0.105E-01
DAV:   5    -0.800825287006E+03   -0.79363E-04   -0.38223E-04 13312   0.461E-02    0.165E-01
DAV:   6    -0.800825120915E+03    0.16609E-03   -0.25395E-04 12400   0.376E-02    0.592E-02
DAV:   7    -0.800825066931E+03    0.53984E-04   -0.60835E-05 12832   0.176E-02
  25 F= -.80082507E+03 E0= -.80078812E+03  d E =-.196733E-02  mag=     0.0439
       N       E                     dE             d eps       ncg     rms          rms(c)
DAV:   1    -0.800822236653E+03    0.28843E-02   -0.13134E+00 19424   0.233E+00    0.656E-01
DAV:   2    -0.800828573483E+03   -0.63368E-02   -0.60569E-02 20528   0.390E-01    0.801E-01
DAV:   3    -0.800827911967E+03    0.66152E-03   -0.12190E-02 22960   0.166E-01    0.627E-01
DAV:   4    -0.800827070451E+03    0.84152E-03   -0.46785E-03 19456   0.104E-01    0.273E-01
DAV:   5    -0.800827472488E+03   -0.40204E-03   -0.27147E-03 18800   0.103E-01    0.365E-01
DAV:   6    -0.800827007515E+03    0.46497E-03   -0.17965E-03 15184   0.862E-02    0.203E-01
DAV:   7    -0.800826732827E+03    0.27469E-03   -0.42706E-04 14304   0.455E-02    0.383E-02
DAV:   8    -0.800826698051E+03    0.34776E-04   -0.60853E-05 12624   0.170E-02
  26 F= -.80082670E+03 E0= -.80078978E+03  d E =-.359845E-02  mag=     0.0506
       N       E                     dE             d eps       ncg     rms          rms(c)
DAV:   1    -0.800827204722E+03   -0.47190E-03   -0.41834E-01 19568   0.123E+00    0.311E-01
DAV:   2    -0.800828306066E+03   -0.11013E-02   -0.12550E-02 22864   0.179E-01    0.281E-01
DAV:   3    -0.800828397998E+03   -0.91933E-04   -0.20243E-03 22352   0.723E-02    0.330E-01
DAV:   4    -0.800828054155E+03    0.34384E-03   -0.10072E-03 14192   0.491E-02    0.117E-01
DAV:   5    -0.800828101790E+03   -0.47635E-04   -0.60603E-04 12464   0.500E-02    0.166E-01
DAV:   6    -0.800827932828E+03    0.16896E-03   -0.36755E-04 12592   0.424E-02    0.820E-02
DAV:   7    -0.800827832529E+03    0.10030E-03   -0.89997E-05 12448   0.216E-02    0.244E-02
DAV:   8    -0.800827771774E+03    0.60754E-04   -0.13949E-05 12464   0.886E-03
  27 F= -.80082777E+03 E0= -.80079088E+03  d E =-.107372E-02  mag=     0.0583
       N       E                     dE             d eps       ncg     rms          rms(c)
DAV:   1    -0.800827351450E+03    0.48108E-03   -0.33215E-01 19536   0.110E+00    0.278E-01
DAV:   2    -0.800828204924E+03   -0.85347E-03   -0.10010E-02 22640   0.159E-01    0.258E-01
DAV:   3    -0.800828259948E+03   -0.55025E-04   -0.15359E-03 21232   0.648E-02    0.294E-01
DAV:   4    -0.800827957178E+03    0.30277E-03   -0.64132E-04 13584   0.439E-02    0.104E-01
DAV:   5    -0.800827977569E+03   -0.20391E-04   -0.42039E-04 12672   0.449E-02    0.156E-01
DAV:   6    -0.800827790476E+03    0.18709E-03   -0.28958E-04 12464   0.383E-02    0.701E-02
DAV:   7    -0.800827682065E+03    0.10841E-03   -0.68603E-05 12656   0.186E-02    0.246E-02
DAV:   8    -0.800827605955E+03    0.76110E-04   -0.11877E-05 12864   0.801E-03
  28 F= -.80082761E+03 E0= -.80079075E+03  d E =-.907904E-03  mag=     0.0672
       N       E                     dE             d eps       ncg     rms          rms(c)
DAV:   1    -0.800827492504E+03    0.18956E-03   -0.41497E-01 19472   0.131E+00    0.260E-01
DAV:   2    -0.800828844422E+03   -0.13519E-02   -0.15891E-02 19776   0.200E-01    0.173E-01
DAV:   3    -0.800828840518E+03    0.39047E-05   -0.61933E-04 19600   0.511E-02    0.147E-01
DAV:   4    -0.800828811052E+03    0.29466E-04   -0.41971E-04 13200   0.407E-02    0.166E-01
DAV:   5    -0.800828689115E+03    0.12194E-03   -0.32344E-04 12192   0.345E-02    0.114E-01
DAV:   6    -0.800828526541E+03    0.16257E-03   -0.19594E-04 12480   0.284E-02    0.385E-02
DAV:   7    -0.800828438599E+03    0.87942E-04   -0.39240E-05 12896   0.139E-02
  29 F= -.80082844E+03 E0= -.80079164E+03  d E =-.832644E-03  mag=     0.0763
       N       E                     dE             d eps       ncg     rms          rms(c)
DAV:   1    -0.800825124390E+03    0.34022E-02   -0.11504E+00 19376   0.218E+00    0.433E-01
DAV:   2    -0.800829002017E+03   -0.38776E-02   -0.44011E-02 19824   0.334E-01    0.273E-01
DAV:   3    -0.800829071171E+03   -0.69154E-04   -0.15274E-03 24224   0.785E-02    0.213E-01
DAV:   4    -0.800829179166E+03   -0.10800E-03   -0.11188E-03 16608   0.626E-02    0.308E-01
DAV:   5    -0.800828949054E+03    0.23011E-03   -0.83978E-04 12928   0.547E-02    0.162E-01
DAV:   6    -0.800828757518E+03    0.19154E-03   -0.39113E-04 12560   0.413E-02    0.467E-02
DAV:   7    -0.800828661732E+03    0.95786E-04   -0.79818E-05 12992   0.203E-02
  30 F= -.80082866E+03 E0= -.80079196E+03  d E =-.105578E-02  mag=     0.0866
       N       E                     dE             d eps       ncg     rms          rms(c)
DAV:   1    -0.800828131968E+03    0.62555E-03   -0.64135E-01 19408   0.161E+00    0.313E-01
DAV:   2    -0.800830062737E+03   -0.19308E-02   -0.21000E-02 19936   0.231E-01    0.290E-01
DAV:   3    -0.800830147631E+03   -0.84894E-04   -0.18784E-03 22048   0.780E-02    0.321E-01
DAV:   4    -0.800829878211E+03    0.26942E-03   -0.86008E-04 14576   0.493E-02    0.134E-01
DAV:   5    -0.800829973056E+03   -0.94845E-04   -0.46067E-04 12336   0.479E-02    0.196E-01
DAV:   6    -0.800829731466E+03    0.24159E-03   -0.30201E-04 11712   0.431E-02    0.437E-02
DAV:   7    -0.800829714017E+03    0.17449E-04   -0.62881E-05 12240   0.176E-02
  31 F= -.80082971E+03 E0= -.80079308E+03  d E =-.105228E-02  mag=     0.0973
       N       E                     dE             d eps       ncg     rms          rms(c)
DAV:   1    -0.800814827451E+03    0.14904E-01   -0.57758E+00 19264   0.483E+00    0.938E-01
DAV:   2    -0.800833006481E+03   -0.18179E-01   -0.18875E-01 20496   0.694E-01    0.857E-01
DAV:   3    -0.800834590835E+03   -0.15844E-02   -0.23765E-02 24784   0.237E-01    0.990E-01
DAV:   4    -0.800831943536E+03    0.26473E-02   -0.11713E-02 21936   0.153E-01    0.372E-01
DAV:   5    -0.800833747496E+03   -0.18040E-02   -0.46271E-03 23792   0.141E-01    0.572E-01
DAV:   6    -0.800832410030E+03    0.13375E-02   -0.27278E-03 22176   0.116E-01    0.119E-01
DAV:   7    -0.800832676391E+03   -0.26636E-03   -0.44425E-04 15264   0.439E-02    0.841E-02
DAV:   8    -0.800832770901E+03   -0.94510E-04   -0.10455E-04 13424   0.245E-02
  32 F= -.80083277E+03 E0= -.80079634E+03  d E =-.410917E-02  mag=     0.1071
       N       E                     dE             d eps       ncg     rms          rms(c)
DAV:   1    -0.800830834730E+03    0.18417E-02   -0.12274E+00 19312   0.221E+00    0.432E-01
DAV:   2    -0.800835088825E+03   -0.42541E-02   -0.44777E-02 21168   0.337E-01    0.322E-01
DAV:   3    -0.800835350303E+03   -0.26148E-03   -0.26949E-03 25184   0.107E-01    0.312E-01
DAV:   4    -0.800835197255E+03    0.15305E-03   -0.12391E-03 17872   0.701E-02    0.203E-01
DAV:   5    -0.800835606427E+03   -0.40917E-03   -0.85798E-04 14512   0.526E-02    0.227E-01
DAV:   6    -0.800835690886E+03   -0.84460E-04   -0.75061E-04 14176   0.515E-02
  33 F= -.80083569E+03 E0= -.80079935E+03  d E =-.291999E-02  mag=     0.1127
       N       E                     dE             d eps       ncg     rms          rms(c)
DAV:   1    -0.800826461663E+03    0.91448E-02   -0.29372E+00 19264   0.341E+00    0.665E-01
DAV:   2    -0.800836212246E+03   -0.97506E-02   -0.10664E-01 21504   0.519E-01    0.474E-01
DAV:   3    -0.800836547236E+03   -0.33499E-03   -0.52544E-03 25568   0.157E-01    0.411E-01
DAV:   4    -0.800836441757E+03    0.10548E-03   -0.26213E-03 22112   0.113E-01    0.345E-01
DAV:   5    -0.800836945918E+03   -0.50416E-03   -0.22364E-03 18704   0.895E-02    0.347E-01
DAV:   6    -0.800836772680E+03    0.17324E-03   -0.17665E-03 18688   0.736E-02    0.130E-01
DAV:   7    -0.800836848496E+03   -0.75816E-04   -0.21657E-04 13760   0.321E-02
  34 F= -.80083685E+03 E0= -.80080064E+03  d E =-.407759E-02  mag=     0.1162
       N       E                     dE             d eps       ncg     rms          rms(c)
DAV:   1    -0.800835786768E+03    0.98591E-03   -0.51203E-01 19376   0.142E+00    0.275E-01
DAV:   2    -0.800837619021E+03   -0.18323E-02   -0.18478E-02 21696   0.217E-01    0.220E-01
DAV:   3    -0.800837760769E+03   -0.14175E-03   -0.12291E-03 23056   0.709E-02    0.221E-01
DAV:   4    -0.800837696225E+03    0.64543E-04   -0.53269E-04 13872   0.457E-02    0.131E-01
DAV:   5    -0.800837867660E+03   -0.17143E-03   -0.38888E-04 13488   0.362E-02    0.143E-01
DAV:   6    -0.800837978721E+03   -0.11106E-03   -0.31957E-04 13360   0.356E-02    0.478E-02
DAV:   7    -0.800838035520E+03   -0.56799E-04   -0.64825E-05 13712   0.185E-02
  35 F= -.80083804E+03 E0= -.80080179E+03  d E =-.526462E-02  mag=     0.1182
       N       E                     dE             d eps       ncg     rms          rms(c)
DAV:   1    -0.800837720434E+03    0.25829E-03   -0.37261E-01 19504   0.122E+00    0.240E-01
DAV:   2    -0.800839153610E+03   -0.14332E-02   -0.14656E-02 20912   0.191E-01    0.196E-01
DAV:   3    -0.800839250477E+03   -0.96868E-04   -0.93875E-04 21040   0.627E-02    0.206E-01
DAV:   4    -0.800839176155E+03    0.74322E-04   -0.44889E-04 12944   0.425E-02    0.114E-01
DAV:   5    -0.800839285397E+03   -0.10924E-03   -0.29868E-04 13008   0.318E-02    0.124E-01
DAV:   6    -0.800839308264E+03   -0.22867E-04   -0.22192E-04 13456   0.311E-02
  36 F= -.80083931E+03 E0= -.80080311E+03  d E =-.127274E-02  mag=     0.1190
       N       E                     dE             d eps       ncg     rms          rms(c)
DAV:   1    -0.800829179998E+03    0.10105E-01   -0.33468E+00 19312   0.365E+00    0.732E-01
DAV:   2    -0.800841457652E+03   -0.12278E-01   -0.13259E-01 20784   0.573E-01    0.555E-01
DAV:   3    -0.800842039872E+03   -0.58222E-03   -0.77942E-03 26000   0.177E-01    0.577E-01
DAV:   4    -0.800841384005E+03    0.65587E-03   -0.42764E-03 21792   0.117E-01    0.359E-01
DAV:   5    -0.800841825286E+03   -0.44128E-03   -0.29298E-03 20176   0.921E-02    0.360E-01
DAV:   6    -0.800841288077E+03    0.53721E-03   -0.19987E-03 19296   0.846E-02    0.117E-01
DAV:   7    -0.800841278806E+03    0.92709E-05   -0.31213E-04 14384   0.358E-02
  37 F= -.80084128E+03 E0= -.80080529E+03  d E =-.324329E-02  mag=     0.1183
       N       E                     dE             d eps       ncg     rms          rms(c)
DAV:   1    -0.800792213192E+03    0.49075E-01   -0.13405E+01 19328   0.732E+00    0.147E+00
DAV:   2    -0.800841125290E+03   -0.48912E-01   -0.53159E-01 20496   0.115E+00    0.110E+00
DAV:   3    -0.800843558745E+03   -0.24335E-02   -0.34530E-02 26544   0.353E-01    0.114E+00
DAV:   4    -0.800840702128E+03    0.28566E-02   -0.21159E-02 24336   0.228E-01    0.707E-01
DAV:   5    -0.800842632477E+03   -0.19303E-02   -0.13511E-02 25392   0.183E-01    0.731E-01
DAV:   6    -0.800840224904E+03    0.24076E-02   -0.94484E-03 24528   0.173E-01    0.248E-01
DAV:   7    -0.800840076666E+03    0.14824E-03   -0.14061E-03 21376   0.728E-02    0.138E-01
DAV:   8    -0.800839947510E+03    0.12916E-03   -0.23840E-04 14256   0.357E-02    0.718E-02
DAV:   9    -0.800839880507E+03    0.67003E-04   -0.59026E-05 12960   0.204E-02
  38 F= -.80083988E+03 E0= -.80080413E+03  d E =-.184499E-02  mag=     0.1146
       N       E                     dE             d eps       ncg     rms          rms(c)
DAV:   1    -0.800820950294E+03    0.18997E-01   -0.56286E+00 19344   0.474E+00    0.946E-01
DAV:   2    -0.800842045161E+03   -0.21095E-01   -0.22442E-01 20768   0.751E-01    0.824E-01
DAV:   3    -0.800843252241E+03   -0.12071E-02   -0.21572E-02 25488   0.257E-01    0.910E-01
DAV:   4    -0.800840960912E+03    0.22913E-02   -0.10720E-02 22848   0.170E-01    0.412E-01
DAV:   5    -0.800841860433E+03   -0.89952E-03   -0.54912E-03 23440   0.121E-01    0.503E-01
DAV:   6    -0.800840831308E+03    0.10291E-02   -0.34323E-03 22464   0.107E-01    0.155E-01
DAV:   7    -0.800840801894E+03    0.29414E-04   -0.49304E-04 16496   0.483E-02
  39 F= -.80084080E+03 E0= -.80080491E+03  d E =-.276637E-02  mag=     0.1110
       N       E                     dE             d eps       ncg     rms          rms(c)
DAV:   1    -0.800839933466E+03    0.89784E-03   -0.86252E-01 19488   0.182E+00    0.382E-01
DAV:   2    -0.800843062156E+03   -0.31287E-02   -0.34509E-02 19792   0.288E-01    0.311E-01
DAV:   3    -0.800843441676E+03   -0.37952E-03   -0.37153E-03 23664   0.112E-01    0.389E-01
DAV:   4    -0.800842924636E+03    0.51704E-03   -0.15166E-03 14192   0.691E-02    0.141E-01
DAV:   5    -0.800843017299E+03   -0.92663E-04   -0.26873E-04 13120   0.363E-02    0.154E-01
DAV:   6    -0.800842939794E+03    0.77505E-04   -0.24175E-04 13104   0.371E-02
  40 F= -.80084294E+03 E0= -.80080718E+03  d E =-.213790E-02  mag=     0.1076
       N       E                     dE             d eps       ncg     rms          rms(c)
DAV:   1    -0.800832225393E+03    0.10792E-01   -0.32996E+00 19344   0.357E+00    0.751E-01
DAV:   2    -0.800843922181E+03   -0.11697E-01   -0.13160E-01 19968   0.557E-01    0.521E-01
DAV:   3    -0.800844955865E+03   -0.10337E-02   -0.92739E-03 24880   0.173E-01    0.590E-01
DAV:   4    -0.800844067881E+03    0.88798E-03   -0.55236E-03 20256   0.117E-01    0.316E-01
DAV:   5    -0.800844287091E+03   -0.21921E-03   -0.12025E-03 19456   0.732E-02    0.249E-01
DAV:   6    -0.800844041710E+03    0.24538E-03   -0.60479E-04 17264   0.610E-02    0.790E-02
DAV:   7    -0.800844017828E+03    0.23881E-04   -0.14877E-04 12928   0.287E-02
  41 F= -.80084402E+03 E0= -.80080841E+03  d E =-.321593E-02  mag=     0.1032
       N       E                     dE             d eps       ncg     rms          rms(c)
DAV:   1    -0.800843579767E+03    0.46194E-03   -0.14691E-01 19584   0.753E-01    0.162E-01
DAV:   2    -0.800844119406E+03   -0.53964E-03   -0.59037E-03 19488   0.119E-01    0.163E-01
DAV:   3    -0.800844151594E+03   -0.32188E-04   -0.84164E-04 16560   0.475E-02    0.187E-01
DAV:   4    -0.800844048416E+03    0.10318E-03   -0.22614E-04 11824   0.285E-02    0.568E-02
DAV:   5    -0.800844076850E+03   -0.28433E-04   -0.78835E-05 11856   0.219E-02    0.879E-02
DAV:   6    -0.800844029610E+03    0.47240E-04   -0.63180E-05 11824   0.202E-02
  42 F= -.80084403E+03 E0= -.80080842E+03  d E =-.322772E-02  mag=     0.0993
       N       E                     dE             d eps       ncg     rms          rms(c)
DAV:   1    -0.800842000880E+03    0.20760E-02   -0.12314E+00 19264   0.214E+00    0.393E-01
DAV:   2    -0.800845729843E+03   -0.37290E-02   -0.41515E-02 19696   0.304E-01    0.244E-01
DAV:   3    -0.800845863366E+03   -0.13352E-03   -0.15108E-03 23952   0.714E-02    0.220E-01
DAV:   4    -0.800845833239E+03    0.30127E-04   -0.81994E-04 14432   0.487E-02    0.192E-01
DAV:   5    -0.800845804525E+03    0.28714E-04   -0.48353E-04 14096   0.449E-02    0.118E-01
DAV:   6    -0.800845760370E+03    0.44155E-04   -0.24136E-04 13136   0.363E-02
  43 F= -.80084576E+03 E0= -.80081026E+03  d E =-.173076E-02  mag=     0.0952
       N       E                     dE             d eps       ncg     rms          rms(c)
DAV:   1    -0.800842441180E+03    0.33633E-02   -0.11314E+00 19264   0.205E+00    0.378E-01
DAV:   2    -0.800845946089E+03   -0.35049E-02   -0.38706E-02 19792   0.296E-01    0.265E-01
DAV:   3    -0.800846146615E+03   -0.20053E-03   -0.19572E-03 24160   0.911E-02    0.250E-01
DAV:   4    -0.800846003199E+03    0.14342E-03   -0.11632E-03 14992   0.694E-02    0.184E-01
DAV:   5    -0.800846068372E+03   -0.65173E-04   -0.87142E-04 13456   0.524E-02    0.202E-01
DAV:   6    -0.800845935561E+03    0.13281E-03   -0.49811E-04 13616   0.393E-02    0.753E-02
DAV:   7    -0.800845926069E+03    0.94913E-05   -0.10512E-04 12176   0.209E-02
  44 F= -.80084593E+03 E0= -.80081049E+03  d E =-.189646E-02  mag=     0.0906
       N       E                     dE             d eps       ncg     rms          rms(c)
DAV:   1    -0.800844297234E+03    0.16383E-02   -0.90280E-01 19296   0.191E+00    0.337E-01
DAV:   2    -0.800847177540E+03   -0.28803E-02   -0.31294E-02 19968   0.282E-01    0.199E-01
DAV:   3    -0.800847282744E+03   -0.10520E-03   -0.12176E-03 23632   0.614E-02    0.185E-01
DAV:   4    -0.800847241820E+03    0.40924E-04   -0.72176E-04 13200   0.427E-02    0.151E-01
DAV:   5    -0.800847232579E+03    0.92415E-05   -0.33918E-04 12480   0.371E-02    0.962E-02
DAV:   6    -0.800847190227E+03    0.42352E-04   -0.15576E-04 12800   0.300E-02
  45 F= -.80084719E+03 E0= -.80081182E+03  d E =-.126416E-02  mag=     0.0862
       N       E                     dE             d eps       ncg     rms          rms(c)
DAV:   1    -0.800823155574E+03    0.24077E-01   -0.81229E+00 19264   0.575E+00    0.102E+00
DAV:   2    -0.800849251199E+03   -0.26096E-01   -0.28145E-01 20176   0.848E-01    0.624E-01
DAV:   3    -0.800850464695E+03   -0.12135E-02   -0.12501E-02 25728   0.204E-01    0.641E-01
DAV:   4    -0.800849522796E+03    0.94190E-03   -0.71980E-03 23072   0.138E-01    0.419E-01
DAV:   5    -0.800849859451E+03   -0.33666E-03   -0.34179E-03 22272   0.107E-01    0.365E-01
DAV:   6    -0.800849274789E+03    0.58466E-03   -0.15481E-03 22400   0.838E-02    0.881E-02
DAV:   7    -0.800849263070E+03    0.11719E-04   -0.19327E-04 12272   0.289E-02
  46 F= -.80084926E+03 E0= -.80081397E+03  d E =-.333700E-02  mag=     0.0812
       N       E                     dE             d eps       ncg     rms          rms(c)
DAV:   1    -0.800849091134E+03    0.18365E-03   -0.49107E-01 20128   0.143E+00    0.329E-01
DAV:   2    -0.800850920902E+03   -0.18298E-02   -0.22428E-02 21232   0.264E-01    0.228E-01
DAV:   3    -0.800850995607E+03   -0.74705E-04   -0.10797E-03 23520   0.718E-02    0.183E-01
DAV:   4    -0.800851006265E+03   -0.10658E-04   -0.68235E-04 13680   0.570E-02    0.200E-01
DAV:   5    -0.800850998701E+03    0.75639E-05   -0.61929E-04 12320   0.494E-02    0.149E-01
DAV:   6    -0.800850907232E+03    0.91468E-04   -0.40812E-04 11920   0.386E-02
  47 F= -.80085091E+03 E0= -.80081558E+03  d E =-.164416E-02  mag=     0.0768
       N       E                     dE             d eps       ncg     rms          rms(c)
DAV:   1    -0.800850918389E+03    0.80312E-04   -0.16381E-03 19424   0.824E-02    0.408E-02
DAV:   2    -0.800850961813E+03   -0.43424E-04   -0.12828E-04 13488   0.289E-02    0.879E-02
DAV:   3    -0.800850928917E+03    0.32896E-04   -0.56271E-05 11632   0.224E-02    0.200E-02
DAV:   4    -0.800850934823E+03   -0.59064E-05   -0.89225E-06 11872   0.689E-03    0.159E-02
DAV:   5    -0.800850942753E+03   -0.79299E-05   -0.32792E-06 12224   0.450E-03    0.146E-02
DAV:   6    -0.800850954623E+03   -0.11870E-04   -0.27140E-06 12464   0.309E-03
  48 F= -.80085095E+03 E0= -.80081562E+03  d E =-.169155E-02  mag=     0.0730
       N       E                     dE             d eps       ncg     rms          rms(c)
DAV:   1    -0.800850816959E+03    0.12579E-03   -0.18737E-01 19392   0.917E-01    0.197E-01
DAV:   2    -0.800851721123E+03   -0.90416E-03   -0.98195E-03 20304   0.169E-01    0.212E-01
DAV:   3    -0.800851693591E+03    0.27532E-04   -0.75963E-04 18448   0.593E-02    0.151E-01
DAV:   4    -0.800851661918E+03    0.31673E-04   -0.35696E-04 12416   0.349E-02    0.117E-01
DAV:   5    -0.800851672359E+03   -0.10441E-04   -0.17973E-04 11792   0.254E-02    0.858E-02
DAV:   6    -0.800851684093E+03   -0.11735E-04   -0.12393E-04 11904   0.236E-02
  49 F= -.80085168E+03 E0= -.80081630E+03  d E =-.729470E-03  mag=     0.0691
       N       E                     dE             d eps       ncg     rms          rms(c)
DAV:   1    -0.800849020617E+03    0.26517E-02   -0.71541E-01 19328   0.179E+00    0.382E-01
DAV:   2    -0.800852511322E+03   -0.34907E-02   -0.37580E-02 20448   0.331E-01    0.426E-01
DAV:   3    -0.800852311410E+03    0.19991E-03   -0.29467E-03 23392   0.116E-01    0.277E-01
DAV:   4    -0.800852288924E+03    0.22487E-04   -0.15854E-03 15888   0.724E-02    0.268E-01
DAV:   5    -0.800852213435E+03    0.75488E-04   -0.71064E-04 11904   0.492E-02    0.176E-01
DAV:   6    -0.800852174793E+03    0.38642E-04   -0.40529E-04 11904   0.436E-02
  50 F= -.80085217E+03 E0= -.80081668E+03  d E =-.122017E-02  mag=     0.0652
       N       E                     dE             d eps       ncg     rms          rms(c)
DAV:   1    -0.800852343899E+03   -0.13046E-03   -0.17077E-01 19520   0.792E-01    0.155E-01
DAV:   2    -0.800852898220E+03   -0.55432E-03   -0.50934E-03 21728   0.118E-01    0.200E-01
DAV:   3    -0.800852778265E+03    0.11995E-03   -0.63231E-04 14832   0.512E-02    0.997E-02
DAV:   4    -0.800852812861E+03   -0.34597E-04   -0.24464E-04 11728   0.342E-02    0.901E-02
DAV:   5    -0.800852813782E+03   -0.92023E-06   -0.13814E-04 12208   0.232E-02    0.626E-02
DAV:   6    -0.800852848891E+03   -0.35109E-04   -0.82416E-05 12256   0.173E-02
  51 F= -.80085285E+03 E0= -.80081742E+03  d E =-.674098E-03  mag=     0.0615
       N       E                     dE             d eps       ncg     rms          rms(c)
DAV:   1    -0.800852501066E+03    0.31272E-03   -0.30821E-01 19408   0.106E+00    0.190E-01
DAV:   2    -0.800853347342E+03   -0.84628E-03   -0.86315E-03 21088   0.145E-01    0.193E-01
DAV:   3    -0.800853350237E+03   -0.28952E-05   -0.72646E-04 17888   0.526E-02    0.156E-01
DAV:   4    -0.800853325743E+03    0.24494E-04   -0.45395E-04 11952   0.394E-02    0.120E-01
DAV:   5    -0.800853332213E+03   -0.64706E-05   -0.22628E-04 11824   0.290E-02    0.803E-02
DAV:   6    -0.800853349936E+03   -0.17722E-04   -0.94723E-05 12208   0.219E-02
  52 F= -.80085335E+03 E0= -.80081787E+03  d E =-.117514E-02  mag=     0.0578
       N       E                     dE             d eps       ncg     rms          rms(c)
DAV:   1    -0.800849837101E+03    0.34951E-02   -0.12340E+00 19376   0.212E+00    0.377E-01
DAV:   2    -0.800853092199E+03   -0.32551E-02   -0.34216E-02 21296   0.287E-01    0.348E-01
DAV:   3    -0.800853241178E+03   -0.14898E-03   -0.28360E-03 24384   0.104E-01    0.323E-01
DAV:   4    -0.800853045762E+03    0.19542E-03   -0.20822E-03 15760   0.830E-02    0.249E-01
DAV:   5    -0.800853025166E+03    0.20596E-04   -0.88515E-04 12960   0.542E-02    0.175E-01
DAV:   6    -0.800852945976E+03    0.79190E-04   -0.40113E-04 13376   0.431E-02
  53 F= -.80085295E+03 E0= -.80081747E+03  d E =-.771183E-03  mag=     0.0543
       N       E                     dE             d eps       ncg     rms          rms(c)
DAV:   1    -0.800852244402E+03    0.78076E-03   -0.51824E-01 19376   0.137E+00    0.239E-01
DAV:   2    -0.800853690729E+03   -0.14463E-02   -0.14452E-02 20784   0.187E-01    0.260E-01
DAV:   3    -0.800853648911E+03    0.41818E-04   -0.13209E-03 21040   0.683E-02    0.197E-01
DAV:   4    -0.800853579851E+03    0.69060E-04   -0.61339E-04 13200   0.460E-02    0.139E-01
DAV:   5    -0.800853611006E+03   -0.31156E-04   -0.37847E-04 11824   0.353E-02    0.122E-01
DAV:   6    -0.800853589378E+03    0.21628E-04   -0.25266E-04 12608   0.332E-02
  54 F= -.80085359E+03 E0= -.80081813E+03  d E =-.141458E-02  mag=     0.0511
       N       E                     dE             d eps       ncg     rms          rms(c)
DAV:   1    -0.800853518242E+03    0.92764E-04   -0.39455E-02 19456   0.382E-01    0.768E-02
DAV:   2    -0.800853668263E+03   -0.15002E-03   -0.12259E-03 21312   0.585E-02    0.111E-01
DAV:   3    -0.800853633425E+03    0.34838E-04   -0.13047E-04 11712   0.251E-02    0.398E-02
DAV:   4    -0.800853661683E+03   -0.28258E-04   -0.64601E-05 11760   0.185E-02    0.597E-02
DAV:   5    -0.800853659677E+03    0.20059E-05   -0.40412E-05 11424   0.119E-02    0.304E-02
DAV:   6    -0.800853687480E+03   -0.27803E-04   -0.17844E-05 12400   0.829E-03
  55 F= -.80085369E+03 E0= -.80081822E+03  d E =-.151269E-02  mag=     0.0482
       N       E                     dE             d eps       ncg     rms          rms(c)
DAV:   1    -0.800853792462E+03   -0.13279E-03   -0.17527E-01 19360   0.829E-01    0.156E-01
DAV:   2    -0.800854423731E+03   -0.63127E-03   -0.68211E-03 20368   0.131E-01    0.108E-01
DAV:   3    -0.800854459453E+03   -0.35722E-04   -0.34797E-04 15856   0.384E-02    0.113E-01
DAV:   4    -0.800854423629E+03    0.35824E-04   -0.18426E-04 11744   0.252E-02    0.626E-02
DAV:   5    -0.800854465452E+03   -0.41823E-04   -0.71862E-05 11664   0.187E-02    0.674E-02
DAV:   6    -0.800854471895E+03   -0.64429E-05   -0.53190E-05 12160   0.177E-02
  56 F= -.80085447E+03 E0= -.80081906E+03  d E =-.784416E-03  mag=     0.0453
       N       E                     dE             d eps       ncg     rms          rms(c)
DAV:   1    -0.800852196922E+03    0.22685E-02   -0.80707E-01 19296   0.177E+00    0.335E-01
DAV:   2    -0.800855070732E+03   -0.28738E-02   -0.31546E-02 20384   0.281E-01    0.236E-01
DAV:   3    -0.800855244277E+03   -0.17354E-03   -0.18403E-03 23728   0.879E-02    0.257E-01
DAV:   4    -0.800855037928E+03    0.20635E-03   -0.96428E-04 13136   0.557E-02    0.141E-01
DAV:   5    -0.800855118156E+03   -0.80228E-04   -0.22961E-04 12240   0.355E-02    0.115E-01
DAV:   6    -0.800855106921E+03    0.11235E-04   -0.16194E-04 12560   0.318E-02
  57 F= -.80085511E+03 E0= -.80081979E+03  d E =-.141944E-02  mag=     0.0426
       N       E                     dE             d eps       ncg     rms          rms(c)
DAV:   1    -0.800854362297E+03    0.75586E-03   -0.37462E-01 19296   0.125E+00    0.230E-01
DAV:   2    -0.800855799358E+03   -0.14371E-02   -0.15372E-02 19568   0.201E-01    0.165E-01
DAV:   3    -0.800855856698E+03   -0.57340E-04   -0.79776E-04 19904   0.557E-02    0.169E-01
DAV:   4    -0.800855765525E+03    0.91173E-04   -0.23261E-04 11840   0.322E-02    0.737E-02
DAV:   5    -0.800855834005E+03   -0.68480E-04   -0.77825E-05 11664   0.208E-02    0.891E-02
DAV:   6    -0.800855838047E+03   -0.40421E-05   -0.92523E-05 12144   0.218E-02
  58 F= -.80085584E+03 E0= -.80082053E+03  d E =-.731126E-03  mag=     0.0401
       N       E                     dE             d eps       ncg     rms          rms(c)
DAV:   1    -0.800844131112E+03    0.11703E-01   -0.33796E+00 19264   0.377E+00    0.678E-01
DAV:   2    -0.800856818530E+03   -0.12687E-01   -0.13747E-01 19952   0.597E-01    0.424E-01
DAV:   3    -0.800857130560E+03   -0.31203E-03   -0.48208E-03 25408   0.138E-01    0.371E-01
DAV:   4    -0.800856871794E+03    0.25877E-03   -0.18373E-03 16944   0.773E-02    0.254E-01
DAV:   5    -0.800857270252E+03   -0.39846E-03   -0.14309E-03 18048   0.742E-02    0.326E-01
DAV:   6    -0.800856932643E+03    0.33761E-03   -0.90612E-04 17568   0.656E-02    0.679E-02
DAV:   7    -0.800856956932E+03   -0.24288E-04   -0.13464E-04 12000   0.267E-02
  59 F= -.80085696E+03 E0= -.80082169E+03  d E =-.185001E-02  mag=     0.0374
       N       E                     dE             d eps       ncg     rms          rms(c)
DAV:   1    -0.800855305064E+03    0.16276E-02   -0.62615E-01 19264   0.158E+00    0.340E-01
DAV:   2    -0.800858138474E+03   -0.28334E-02   -0.31902E-02 20080   0.282E-01    0.283E-01
DAV:   3    -0.800858319950E+03   -0.18148E-03   -0.27380E-03 23552   0.104E-01    0.289E-01
DAV:   4    -0.800858035290E+03    0.28466E-03   -0.12807E-03 13328   0.657E-02    0.149E-01
DAV:   5    -0.800858122936E+03   -0.87646E-04   -0.37314E-04 11920   0.398E-02    0.168E-01
DAV:   6    -0.800858044337E+03    0.78599E-04   -0.29384E-04 12512   0.365E-02
  60 F= -.80085804E+03 E0= -.80082264E+03  d E =-.108741E-02  mag=     0.0352
       N       E                     dE             d eps       ncg     rms          rms(c)
DAV:   1    -0.800855268883E+03    0.28541E-02   -0.68248E-01 19296   0.165E+00    0.360E-01
DAV:   2    -0.800858335975E+03   -0.30671E-02   -0.34619E-02 20080   0.294E-01    0.293E-01
DAV:   3    -0.800858477283E+03   -0.14131E-03   -0.27456E-03 23440   0.977E-02    0.293E-01
DAV:   4    -0.800858239966E+03    0.23732E-03   -0.12077E-03 13888   0.588E-02    0.158E-01
DAV:   5    -0.800858326853E+03   -0.86887E-04   -0.37977E-04 12192   0.428E-02    0.168E-01
DAV:   6    -0.800858237174E+03    0.89679E-04   -0.27047E-04 12304   0.404E-02
  61 F= -.80085824E+03 E0= -.80082271E+03  d E =-.128024E-02  mag=     0.0331
       N       E                     dE             d eps       ncg     rms          rms(c)
DAV:   1    -0.800857581863E+03    0.74499E-03   -0.24932E-01 19376   0.993E-01    0.213E-01
DAV:   2    -0.800858725229E+03   -0.11434E-02   -0.12203E-02 19680   0.175E-01    0.186E-01
DAV:   3    -0.800858791556E+03   -0.66327E-04   -0.10230E-03 17824   0.665E-02    0.188E-01
DAV:   4    -0.800858675526E+03    0.11603E-03   -0.47046E-04 11952   0.439E-02    0.915E-02
DAV:   5    -0.800858711829E+03   -0.36304E-04   -0.13321E-04 11792   0.245E-02    0.968E-02
DAV:   6    -0.800858713346E+03   -0.15162E-05   -0.78136E-05 12944   0.227E-02
  62 F= -.80085871E+03 E0= -.80082314E+03  d E =-.476172E-03  mag=     0.0312
       N       E                     dE             d eps       ncg     rms          rms(c)
DAV:   1    -0.800857238244E+03    0.14736E-02   -0.38538E-01 19296   0.124E+00    0.264E-01
DAV:   2    -0.800859002579E+03   -0.17643E-02   -0.18876E-02 19840   0.215E-01    0.230E-01
DAV:   3    -0.800859098524E+03   -0.95945E-04   -0.17176E-03 21808   0.730E-02    0.243E-01
DAV:   4    -0.800858922865E+03    0.17566E-03   -0.71652E-04 13024   0.453E-02    0.108E-01
DAV:   5    -0.800858987317E+03   -0.64451E-04   -0.20123E-04 12048   0.321E-02    0.125E-01
DAV:   6    -0.800858941305E+03    0.46012E-04   -0.13635E-04 12320   0.296E-02
  63 F= -.80085894E+03 E0= -.80082330E+03  d E =-.704131E-03  mag=     0.0292
       N       E                     dE             d eps       ncg     rms          rms(c)
DAV:   1    -0.800859166290E+03   -0.17897E-03   -0.71821E-02 19472   0.543E-01    0.130E-01
DAV:   2    -0.800859540498E+03   -0.37421E-03   -0.40923E-03 20736   0.106E-01    0.105E-01
DAV:   3    -0.800859556477E+03   -0.15980E-04   -0.19761E-04 14432   0.344E-02    0.890E-02
DAV:   4    -0.800859535180E+03    0.21298E-04   -0.63681E-05 11744   0.226E-02    0.456E-02
DAV:   5    -0.800859566511E+03   -0.31331E-04   -0.62662E-05 12192   0.171E-02    0.668E-02
DAV:   6    -0.800859562969E+03    0.35417E-05   -0.53368E-05 12928   0.145E-02
  64 F= -.80085956E+03 E0= -.80082395E+03  d E =-.621664E-03  mag=     0.0274
       N       E                     dE             d eps       ncg     rms          rms(c)
DAV:   1    -0.800859128519E+03    0.43799E-03   -0.16187E-01 19360   0.813E-01    0.193E-01
DAV:   2    -0.800859942090E+03   -0.81357E-03   -0.91886E-03 21040   0.157E-01    0.149E-01
DAV:   3    -0.800859978314E+03   -0.36224E-04   -0.48567E-04 17872   0.486E-02    0.144E-01
DAV:   4    -0.800859930828E+03    0.47486E-04   -0.17961E-04 12528   0.277E-02    0.718E-02
DAV:   5    -0.800859969899E+03   -0.39071E-04   -0.98290E-05 11968   0.209E-02    0.726E-02
DAV:   6    -0.800859971285E+03   -0.13861E-05   -0.11949E-04 12912   0.219E-02
  65 F= -.80085997E+03 E0= -.80082440E+03  d E =-.102998E-02  mag=     0.0258
       N       E                     dE             d eps       ncg     rms          rms(c)
DAV:   1    -0.800859941879E+03    0.28020E-04   -0.85281E-02 19392   0.599E-01    0.131E-01
DAV:   2    -0.800860333404E+03   -0.39153E-03   -0.43107E-03 20896   0.109E-01    0.914E-02
DAV:   3    -0.800860343536E+03   -0.10132E-04   -0.13166E-04 15280   0.255E-02    0.752E-02
DAV:   4    -0.800860348137E+03   -0.46016E-05   -0.10232E-04 11568   0.193E-02    0.734E-02
DAV:   5    -0.800860359173E+03   -0.11036E-04   -0.78555E-05 11872   0.174E-02    0.487E-02
DAV:   6    -0.800860359095E+03    0.78115E-07   -0.46439E-05 11744   0.148E-02
  66 F= -.80086036E+03 E0= -.80082481E+03  d E =-.387809E-03  mag=     0.0241
